ITEM: TIMESTEP
0
ITEM: NUMBER OF ATOMS
500
ITEM: BOX BOUNDS pp pp pp
0.0000000000000000e+00 2.4620000000000001e+01
0.0000000000000000e+00 2.4620000000000001e+01
0.0000000000000000e+00 2.4620000000000001e+01
id type xs ys zs fx fy fz
1 1 0 0 0 0.000601395 3.88578e-16 1.52656e-16
2 1 0.1 0.1 0 -0.00193588 1.09288e-16 -9.02056e-17
3 1 0.1 0 0.1 -0.00193588 -1.52656e-16 1.16226e-16
4 1 0 0.1 0.1 0.000601395 1.52656e-16 1.80411e-16
5 1 0.2 0 0 0.00641796 1.18829e-16 1.3314e-16
8 1 0.2 0.1 0.1 0.00641796 2.37657e-16 1.55258e-16
11 1 0 0.2 0 0.000601395 1.15186e-15 1.31839e-16
13 1 0.1 0.2 0.1 -0.00193588 9.71445e-16 1.50487e-16
15 1 0.2 0.2 0 0.00641796 9.48894e-16 2.12504e-17
51 1 0 0 0.2 0.000601395 2.08167e-17 1.17961e-15
52 1 0.1 0.1 0.2 -0.00193588 1.68268e-16 1.08247e-15
55 1 0.2 0 0.2 0.00641796 6.28837e-17 1.1189e-15
61 1 0 0.2 0.2 0.000601395 1.09635e-15 1.13104e-15
65 1 0.2 0.2 0.2 0.00641796 1.09851e-15 1.11933e-15
6 1 0.3 0.1 0 0.0656877 2.27249e-16 9.71445e-17
7 1 0.3 0 0.1 0.0656877 1.66533e-16 1.94289e-16
9 1 0.402031 0 0 -0.152116 4.44089e-16 5.13478e-16
10 1 0.402031 0.1 0.1 -0.152116 8.32667e-17 1.52656e-16
17 1 0.3 0.2 0.1 0.0656877 1.06165e-15 2.85362e-16
19 1 0.402031 0.2 0 -0.152116 1.31622e-15 3.72966e-16
56 1 0.3 0.1 0.2 0.0656877 1.33574e-16 1.12237e-15
59 1 0.402031 0 0.2 -0.152116 2.498e-16 1.36002e-15
69 1 0.402031 0.2 0.2 -0.152116 1.39125e-15 1.23165e-15
12 1 0.1 0.3 0 -0.00193588 -1.19522e-15 2.08167e-16
14 1 0 0.3 0.1 0.000601395 -1.249e-15 2.91434e-16
18 1 0.2 0.3 0.1 0.00641796 -1.1241e-15 1.53523e-16
21 1 0 0.4 0 0.000601395 1.80411e-16 7.07767e-16
23 1 0.1 0.4 0.1 -0.00193588 8.32667e-17 2.25948e-16
25 1 0.2 0.4 0 0.00641796 8.84709e-17 4.06793e-16
62 1 0.1 0.3 0.2 -0.00193588 -1.12063e-15 1.04777e-15
71 1 0 0.4 0.2 0.000601395 6.93889e-17 9.85323e-16
75 1 0.2 0.4 0.2 0.00641796 6.37511e-17 1.04821e-15
16 1 0.3 0.3 0 0.0656877 -1.54737e-15 3.92048e-16
20 1 0.402031 0.3 0.1 -0.152116 -1.68268e-15 2.498e-16
27 1 0.3 0.4 0.1 0.0656877 1.72605e-16 1.79544e-16
29 1 0.402031 0.4 0 -0.152116 8.32667e-17 6.93889e-16
66 1 0.3 0.3 0.2 0.0656877 -1.30798e-15 1.0339e-15
79 1 0.402031 0.4 0.2 -0.152116 1.73472e-16 1.44199e-15
22 1 0.1 0.5 0 -0.00193588 3.05745e-15 5.41234e-16
24 1 0 0.5 0.1 0.000601395 3.08564e-15 2.498e-16
28 1 0.2 0.5 0.1 0.00641796 2.92648e-15 2.60209e-16
31 1 0 0.6 0 0.000601395 -2.94903e-15 6.76542e-16
32 1 0.1 0.7 0 -0.00193588 -1.83881e-16 3.59088e-16
33 1 0.1 0.6 0.1 -0.00193588 -2.99847e-15 2.36356e-16
34 1 0 0.7 0.1 0.000601395 -1.60462e-16 3.05311e-16
35 1 0.2 0.6 0 0.00641796 -2.67017e-15 3.99854e-16
38 1 0.2 0.7 0.1 0.00641796 -9.36751e-17 2.71484e-16
72 1 0.1 0.5 0.2 -0.00193588 2.81719e-15 7.77156e-16
81 1 0 0.6 0.2 0.000601395 -2.67841e-15 8.17922e-16
82 1 0.1 0.7 0.2 -0.00193588 -2.63678e-16 1.09981e-15
85 1 0.2 0.6 0.2 0.00641796 -2.43685e-15 7.22512e-16
26 1 0.3 0.5 0 0.0656877 2.67494e-15 5.96745e-16
30 1 0.402031 0.5 0.1 -0.152116 3.10169e-15 2.498e-16
36 1 0.3 0.7 0 0.0656877 -1.25767e-16 6.10623e-16
37 1 0.3 0.6 0.1 0.0656877 -2.48022e-15 2.54137e-16
39 1 0.402031 0.6 0 -0.152116 -2.93515e-15 7.45931e-16
40 1 0.402031 0.7 0.1 -0.152116 -2.05131e-16 2.22045e-16
76 1 0.3 0.5 0.2 0.0656877 2.48759e-15 7.85396e-16
86 1 0.3 0.7 0.2 0.0656877 -1.73472e-16 1.00961e-15
89 1 0.402031 0.6 0.2 -0.152116 -2.69923e-15 1.15272e-15
41 1 0 0.8 0 0.000601395 6.245e-17 6.26235e-16
42 1 0.1 0.9 0 -0.00193588 -2.11636e-16 4.16334e-16
43 1 0.1 0.8 0.1 -0.00193588 -6.245e-17 3.22659e-16
44 1 0 0.9 0.1 0.000601395 -1.31839e-16 1.80411e-16
45 1 0.2 0.8 0 0.00641796 1.21431e-17 5.91541e-16
48 1 0.2 0.9 0.1 0.00641796 -1.89085e-16 2.22912e-16
91 1 0 0.8 0.2 0.000601395 -1.249e-16 1.04691e-15
92 1 0.1 0.9 0.2 -0.00193588 -2.63678e-16 9.74915e-16
95 1 0.2 0.8 0.2 0.00641796 -2.38524e-17 1.079e-15
46 1 0.3 0.9 0 0.0656877 -3.64292e-17 7.35523e-16
47 1 0.3 0.8 0.1 0.0656877 4.16334e-17 2.78423e-16
49 1 0.402031 0.8 0 -0.152116 -5.55112e-17 7.07767e-16
50 1 0.402031 0.9 0.1 -0.152116 4.16334e-17 3.19189e-16
96 1 0.3 0.9 0.2 0.0656877 -6.93889e-18 9.47159e-16
99 1 0.402031 0.8 0.2 -0.152116 2.77556e-17 1.50574e-15
53 1 0.1 0 0.3 -0.00193588 6.93889e-17 -1.34961e-15
54 1 0 0.1 0.3 0.000601395 2.98372e-16 -1.26288e-15
58 1 0.2 0.1 0.3 0.00641796 2.32019e-16 -1.21604e-15
63 1 0.1 0.2 0.3 -0.00193588 1.0339e-15 -1.10675e-15
101 1 0 0 0.4 0.000601395 6.66134e-16 7.63278e-17
102 1 0.1 0.1 0.4 -0.00193588 1.5439e-16 6.245e-17
103 1 0.2 0 0.4 0.00641796 3.97252e-16 -5.20417e-17
106 1 0 0.2 0.4 0.000601395 1.05471e-15 -5.55112e-17
108 1 0.2 0.2 0.4 0.00641796 1.02782e-15 -4.77049e-17
57 1 0.3 0 0.3 0.0656877 2.91434e-16 -1.54911e-15
60 1 0.402031 0.1 0.3 -0.152116 1.66533e-16 -1.69309e-15
67 1 0.3 0.2 0.3 0.0656877 9.6494e-16 -1.33227e-15
104 1 0.3 0.1 0.4 0.0656877 1.42247e-16 3.38271e-17
105 1 0.402031 0 0.4 -0.152116 7.49401e-16 0
110 1 0.402031 0.2 0.4 -0.152116 1.39949e-15 -2.77556e-17
64 1 0 0.3 0.3 0.000601395 -1.51268e-15 -1.6237e-15
68 1 0.2 0.3 0.3 0.00641796 -1.24553e-15 -1.36696e-15
73 1 0.1 0.4 0.3 -0.00193588 1.11022e-16 -1.63584e-15
107 1 0.1 0.3 0.4 -0.00193588 -1.49533e-15 -3.46945e-17
111 1 0 0.4 0.4 0.000601395 1.04083e-16 0
113 1 0.2 0.4 0.4 0.00641796 1.18178e-16 -1.19696e-16
70 1 0.402031 0.3 0.3 -0.152116 -1.92901e-15 -1.8735e-15
77 1 0.3 0.4 0.3 0.0656877 9.02056e-17 -1.90126e-15
109 1 0.3 0.3 0.4 0.0656877 -1.80758e-15 -5.0307e-17
115 1 0.402031 0.4 0.4 -0.152116 2.498e-16 -4.16334e-17
74 1 0 0.5 0.3 0.000601395 2.80982e-15 -1.58901e-15
78 1 0.2 0.5 0.3 0.00641796 2.60881e-15 -1.33834e-15
83 1 0.1 0.6 0.3 -0.00193588 -2.63158e-15 -1.42161e-15
84 1 0 0.7 0.3 0.000601395 -2.22045e-16 -1.94289e-15
88 1 0.2 0.7 0.3 0.00641796 -1.29671e-16 -1.64539e-15
112 1 0.1 0.5 0.4 -0.00193588 2.9486e-15 -2.77556e-17
116 1 0 0.6 0.4 0.000601395 -2.92821e-15 -3.46945e-17
117 1 0.1 0.7 0.4 -0.00193588 -1.63064e-16 -1.40513e-16
118 1 0.2 0.6 0.4 0.00641796 -2.73002e-15 -1.83881e-16
80 1 0.402031 0.5 0.3 -0.152116 2.498e-15 -1.81799e-15
87 1 0.3 0.6 0.3 0.0656877 -2.26555e-15 -1.60288e-15
90 1 0.402031 0.7 0.3 -0.152116 -2.5327e-16 -2.16493e-15
114 1 0.3 0.5 0.4 0.0656877 2.61249e-15 -1.49186e-16
119 1 0.3 0.7 0.4 0.0656877 -1.60462e-16 -1.59595e-16
120 1 0.402031 0.6 0.4 -0.152116 -2.98372e-15 -1.249e-16
93 1 0.1 0.8 0.3 -0.00193588 -1.02349e-16 -1.69482e-15
94 1 0 0.9 0.3 0.000601395 -2.22045e-16 -1.91513e-15
98 1 0.2 0.9 0.3 0.00641796 -9.02056e-17 -1.69309e-15
121 1 0 0.8 0.4 0.000601395 -8.32667e-17 -1.14492e-16
122 1 0.1 0.9 0.4 -0.00193588 -1.17961e-16 -6.93889e-17
123 1 0.2 0.8 0.4 0.00641796 -1.0842e-17 -1.39645e-16
97 1 0.3 0.8 0.3 0.0656877 5.55112e-17 -1.93248e-15
100 1 0.402031 0.9 0.3 -0.152116 -6.93889e-18 -2.08861e-15
124 1 0.3 0.9 0.4 0.0656877 6.245e-17 -1.9082e-17
125 1 0.402031 0.8 0.4 -0.152116 9.71445e-17 1.11022e-16
126 1 0.1 0 0.5 -0.00193588 5.41234e-16 3.0722e-15
127 1 0 0.1 0.5 0.000601395 1.11022e-16 3.1225e-15
129 1 0.2 0.1 0.5 0.00641796 1.99927e-16 2.81025e-15
131 1 0.1 0.2 0.5 -0.00193588 7.49401e-16 2.78683e-15
151 1 0 0 0.6 0.000601395 7.12104e-16 -2.84495e-15
152 1 0.1 0.1 0.6 -0.00193588 1.32706e-16 -2.75257e-15
153 1 0.1 0 0.7 -0.00193588 4.26742e-16 -6.93889e-18
154 1 0 0.1 0.7 0.000601395 1.45717e-16 3.64292e-17
155 1 0.2 0 0.6 0.00641796 4.51895e-16 -2.45463e-15
158 1 0.2 0.1 0.7 0.00641796 1.73906e-16 -1.26635e-16
161 1 0 0.2 0.6 0.000601395 7.44196e-16 -2.45637e-15
163 1 0.1 0.2 0.7 -0.00193588 1.10328e-15 -3.81639e-17
165 1 0.2 0.2 0.6 0.00641796 7.75421e-16 -2.21698e-15
128 1 0.3 0 0.5 0.0656877 6.80012e-16 2.59862e-15
130 1 0.402031 0.1 0.5 -0.152116 1.94289e-16 3.01148e-15
133 1 0.3 0.2 0.5 0.0656877 7.39426e-16 2.43555e-15
156 1 0.3 0.1 0.6 0.0656877 2.53703e-16 -2.4555e-15
157 1 0.3 0 0.7 0.0656877 6.93889e-16 -1.38344e-16
159 1 0.402031 0 0.6 -0.152116 9.05526e-16 -2.92821e-15
160 1 0.402031 0.1 0.7 -0.152116 2.08167e-16 -2.12504e-16
167 1 0.3 0.2 0.7 0.0656877 1.04994e-15 -1.04083e-17
169 1 0.402031 0.2 0.6 -0.152116 1.05601e-15 -2.51188e-15
132 1 0 0.3 0.5 0.000601395 -1.54737e-15 2.77035e-15
134 1 0.2 0.3 0.5 0.00641796 -1.36176e-15 2.54918e-15
136 1 0.1 0.4 0.5 -0.00193588 1.38778e-16 3.22312e-15
162 1 0.1 0.3 0.6 -0.00193588 -1.39472e-15 -2.48196e-15
164 1 0 0.3 0.7 0.000601395 -1.76248e-15 6.67869e-17
168 1 0.2 0.3 0.7 0.00641796 -1.56082e-15 -2.77556e-17
171 1 0 0.4 0.6 0.000601395 2.73219e-16 -2.78944e-15
173 1 0.1 0.4 0.7 -0.00193588 6.245e-17 -1.04083e-17
175 1 0.2 0.4 0.6 0.00641796 8.32667e-17 -2.49713e-15
135 1 0.402031 0.3 0.5 -0.152116 -1.8735e-15 2.88658e-15
138 1 0.3 0.4 0.5 0.0656877 1.24033e-16 2.67841e-15
166 1 0.3 0.3 0.6 0.0656877 -1.54737e-15 -2.0808e-15
170 1 0.402031 0.3 0.7 -0.152116 -2.10942e-15 -1.17961e-16
177 1 0.3 0.4 0.7 0.0656877 6.93889e-17 -3.64292e-17
179 1 0.402031 0.4 0.6 -0.152116 1.249e-16 -2.7478e-15
137 1 0 0.5 0.5 0.000601395 3.03967e-15 3.06352e-15
139 1 0.2 0.5 0.5 0.00641796 2.71593e-15 2.87617e-15
141 1 0.1 0.6 0.5 -0.00193588 -2.90913e-15 3.05311e-15
142 1 0 0.7 0.5 0.000601395 -2.84495e-16 3.00454e-15
144 1 0.2 0.7 0.5 0.00641796 -1.9559e-16 2.7825e-15
172 1 0.1 0.5 0.6 -0.00193588 3.0427e-15 -2.7929e-15
174 1 0 0.5 0.7 0.000601395 3.00411e-15 -8.67362e-17
178 1 0.2 0.5 0.7 0.00641796 2.86208e-15 -4.33681e-17
181 1 0 0.6 0.6 0.000601395 -2.91434e-15 -2.70617e-15
182 1 0.1 0.7 0.6 -0.00193588 -2.91434e-16 -2.6975e-15
183 1 0.1 0.6 0.7 -0.00193588 -2.94036e-15 -2.15106e-16
184 1 0 0.7 0.7 0.000601395 -1.249e-16 -5.55112e-17
185 1 0.2 0.6 0.6 0.00641796 -2.64806e-15 -2.30285e-15
188 1 0.2 0.7 0.7 0.00641796 -1.4962e-16 -4.51028e-17
140 1 0.402031 0.5 0.5 -0.152116 2.94209e-15 3.15026e-15
143 1 0.3 0.6 0.5 0.0656877 -2.53964e-15 2.75474e-15
145 1 0.402031 0.7 0.5 -0.152116 -2.85796e-16 3.09475e-15
176 1 0.3 0.5 0.6 0.0656877 2.74086e-15 -2.35706e-15
180 1 0.402031 0.5 0.7 -0.152116 3.05311e-15 -1.52656e-16
186 1 0.3 0.7 0.6 0.0656877 -1.43982e-16 -2.32279e-15
187 1 0.3 0.6 0.7 0.0656877 -2.46764e-15 -1.42247e-16
189 1 0.402031 0.6 0.6 -0.152116 -2.92821e-15 -2.76168e-15
190 1 0.402031 0.7 0.7 -0.152116 -2.05998e-16 -9.54098e-17
146 1 0.1 0.8 0.5 -0.00193588 -1.56125e-17 3.09128e-15
147 1 0 0.9 0.5 0.000601395 -8.32667e-17 3.04617e-15
149 1 0.2 0.9 0.5 0.00641796 -1.52656e-16 2.82977e-15
191 1 0 0.8 0.6 0.000601395 5.55112e-17 -2.70617e-15
192 1 0.1 0.9 0.6 -0.00193588 -4.16334e-17 -2.81025e-15
193 1 0.1 0.8 0.7 -0.00193588 -1.04951e-16 -1.38778e-17
194 1 0 0.9 0.7 0.000601395 -8.32667e-17 -1.38778e-17
195 1 0.2 0.8 0.6 0.00641796 -9.1073e-17 -2.28376e-15
198 1 0.2 0.9 0.7 0.00641796 -1.17961e-16 -3.29597e-17
148 1 0.3 0.8 0.5 0.0656877 5.55112e-17 2.51882e-15
150 1 0.402031 0.9 0.5 -0.152116 1.38778e-17 3.08781e-15
196 1 0.3 0.9 0.6 0.0656877 1.34441e-17 -2.38264e-15
197 1 0.3 0.8 0.7 0.0656877 -6.245e-17 4.33681e-18
199 1 0.402031 0.8 0.6 -0.152116 1.38778e-17 -2.80331e-15
200 1 0.402031 0.9 0.7 -0.152116 -2.498e-16 -8.84709e-17
201 1 0 0 0.8 0.000601395 6.55725e-16 2.08167e-17
202 1 0.1 0.1 0.8 -0.00193588 1.33574e-16 -6.41848e-17
203 1 0.1 0 0.9 -0.00193588 4.61436e-16 -1.59595e-16
204 1 0 0.1 0.9 0.000601395 1.59595e-16 -2.61943e-16
205 1 0.2 0 0.8 0.00641796 5.35162e-16 2.1684e-17
208 1 0.2 0.1 0.9 0.00641796 2.98372e-16 -2.51535e-16
211 1 0 0.2 0.8 0.000601395 1.01308e-15 2.77556e-17
213 1 0.1 0.2 0.9 -0.00193588 9.64506e-16 -2.39392e-16
215 1 0.2 0.2 0.8 0.00641796 1.00744e-15 -9.45424e-17
206 1 0.3 0.1 0.8 0.0656877 3.4521e-16 -4.85723e-17
207 1 0.3 0 0.9 0.0656877 6.45317e-16 4.51028e-17
209 1 0.402031 0 0.8 -0.152116 7.91034e-16 1.38778e-17
210 1 0.402031 0.1 0.9 -0.152116 1.94289e-16 -1.38778e-16
217 1 0.3 0.2 0.9 0.0656877 1.03476e-15 -1.02349e-16
219 1 0.402031 0.2 0.8 -0.152116 1.21257e-15 1.73472e-18
212 1 0.1 0.3 0.8 -0.00193588 -1.51441e-15 -1.30104e-17
214 1 0 0.3 0.9 0.000601395 -1.7486e-15 -3.33067e-16
218 1 0.2 0.3 0.9 0.00641796 -1.48579e-15 -3.27863e-16
221 1 0 0.4 0.8 0.000601395 7.63278e-17 -2.77556e-17
223 1 0.1 0.4 0.9 -0.00193588 4.16334e-17 -2.15106e-16
225 1 0.2 0.4 0.8 0.00641796 2.55872e-17 1.12757e-17
216 1 0.3 0.3 0.8 0.0656877 -1.77636e-15 -3.46945e-17
220 1 0.402031 0.3 0.9 -0.152116 -2.02616e-15 -1.94289e-16
227 1 0.3 0.4 0.9 0.0656877 9.54098e-17 -1.36176e-16
229 1 0.402031 0.4 0.8 -0.152116 6.93889e-17 2.77556e-17
222 1 0.1 0.5 0.8 -0.00193588 2.99457e-15 6.93889e-17
224 1 0 0.5 0.9 0.000601395 2.91043e-15 -2.01228e-16
228 1 0.2 0.5 0.9 0.00641796 2.77187e-15 -2.41127e-16
231 1 0 0.6 0.8 0.000601395 -2.87964e-15 -4.16334e-17
232 1 0.1 0.7 0.8 -0.00193588 -2.42861e-16 -8.67362e-17
233 1 0.1 0.6 0.9 -0.00193588 -2.93168e-15 -1.59595e-16
234 1 0 0.7 0.9 0.000601395 -2.01228e-16 -2.08167e-16
235 1 0.2 0.6 0.8 0.00641796 -2.62897e-15 -4.51028e-17
238 1 0.2 0.7 0.9 0.00641796 -2.01228e-16 -2.8276e-16
226 1 0.3 0.5 0.8 0.0656877 2.81025e-15 -2.25514e-17
230 1 0.402031 0.5 0.9 -0.152116 3.06699e-15 -1.38778e-16
236 1 0.3 0.7 0.8 0.0656877 -2.12937e-16 -6.93889e-18
237 1 0.3 0.6 0.9 0.0656877 -2.57259e-15 -2.12504e-16
239 1 0.402031 0.6 0.8 -0.152116 -2.9074e-15 1.38778e-16
240 1 0.402031 0.7 0.9 -0.152116 -2.76688e-16 -1.31839e-16
241 1 0 0.8 0.8 0.000601395 -5.55112e-17 6.93889e-17
242 1 0.1 0.9 0.8 -0.00193588 -1.94289e-16 -2.77556e-17
243 1 0.1 0.8 0.9 -0.00193588 -6.76542e-17 -1.73472e-16
244 1 0 0.9 0.9 0.000601395 -1.249e-16 -1.11022e-16
245 1 0.2 0.8 0.8 0.00641796 2.55872e-17 -3.64292e-17
248 1 0.2 0.9 0.9 0.00641796 -1.88217e-16 -2.2031e-16
246 1 0.3 0.9 0.8 0.0656877 -2.18575e-16 -4.85723e-17
247 1 0.3 0.8 0.9 0.0656877 -1.04083e-16 -1.89085e-16
249 1 0.402031 0.8 0.8 -0.152116 -1.38778e-16 -6.93889e-18
250 1 0.402031 0.9 0.9 -0.152116 -3.46945e-17 -9.71445e-17
251 1 0.5 0.1 0 0.0759779 1.52656e-16 1.47451e-16
252 1 0.5 0 0.1 0.0759779 1.38778e-16 1.94289e-16
253 1 0.6 0 0 0.00643263 7.14706e-16 7.40727e-16
254 1 0.7 0.1 0 -0.00181159 2.96204e-16 4.6599e-16
255 1 0.7 0 0.1 -0.00181159 4.76182e-16 2.42861e-16
256 1 0.6 0.1 0.1 0.00643263 1.79544e-16 2.80158e-16
262 1 0.5 0.2 0.1 0.0759779 1.11716e-15 1.94289e-16
263 1 0.6 0.2 0 0.00643263 8.53484e-16 5.89806e-16
265 1 0.7 0.2 0.1 -0.00181159 1.19262e-15 2.93168e-16
301 1 0.5 0.1 0.2 0.0759779 2.15106e-16 1.23859e-15
303 1 0.6 0 0.2 0.00643263 3.88578e-16 8.88178e-16
304 1 0.7 0.1 0.2 -0.00181159 3.08781e-16 1.10328e-15
313 1 0.6 0.2 0.2 0.00643263 7.73687e-16 8.36137e-16
257 1 0.8 0 0 0.000621088 7.77156e-16 6.03684e-16
258 1 0.9 0.1 0 0.000124547 1.73472e-16 3.02709e-16
259 1 0.9 0 0.1 0.000124547 3.00107e-16 1.94289e-16
260 1 0.8 0.1 0.1 0.000621088 3.34802e-16 3.63858e-16
267 1 0.8 0.2 0 0.000621088 9.73614e-16 4.23273e-16
269 1 0.9 0.2 0.1 0.000124547 1.05731e-15 2.22045e-16
307 1 0.8 0 0.2 0.000621088 4.19803e-16 1.13798e-15
308 1 0.9 0.1 0.2 0.000124547 2.84495e-16 1.06685e-15
317 1 0.8 0.2 0.2 0.000621088 1.06599e-15 1.09808e-15
261 1 0.5 0.3 0 0.0759779 -1.67227e-15 3.98986e-16
264 1 0.7 0.3 0 -0.00181159 -1.79631e-15 7.33788e-16
266 1 0.6 0.3 0.1 0.00643263 -1.4099e-15 8.80372e-17
272 1 0.5 0.4 0.1 0.0759779 1.21431e-16 2.63678e-16
273 1 0.6 0.4 0 0.00643263 9.36751e-17 1.08247e-15
275 1 0.7 0.4 0.1 -0.00181159 1.32706e-16 4.51895e-16
311 1 0.5 0.3 0.2 0.0759779 -1.46411e-15 1.21431e-15
314 1 0.7 0.3 0.2 -0.00181159 -1.62067e-15 1.13364e-15
323 1 0.6 0.4 0.2 0.00643263 1.76942e-16 7.77156e-16
268 1 0.9 0.3 0 0.000124547 -1.80411e-15 6.80012e-16
270 1 0.8 0.3 0.1 0.000621088 -1.52656e-15 3.26128e-16
277 1 0.8 0.4 0 0.000621088 8.76035e-17 8.95117e-16
279 1 0.9 0.4 0.1 0.000124547 1.249e-16 3.19189e-16
318 1 0.9 0.3 0.2 0.000124547 -1.50574e-15 1.22125e-15
327 1 0.8 0.4 0.2 0.000621088 3.81639e-17 1.13798e-15
271 1 0.5 0.5 0 0.0759779 3.1663e-15 7.59809e-16
274 1 0.7 0.5 0 -0.00181159 3.04357e-15 1.0018e-15
276 1 0.6 0.5 0.1 0.00643263 3.0002e-15 2.75387e-16
281 1 0.5 0.7 0 0.0759779 -1.80411e-16 7.70217e-16
282 1 0.5 0.6 0.1 0.0759779 -3.17801e-15 1.94289e-16
283 1 0.6 0.6 0 0.00643263 -3.00281e-15 8.91648e-16
284 1 0.7 0.7 0 -0.00181159 -1.47018e-16 9.97466e-16
285 1 0.7 0.6 0.1 -0.00181159 -2.87877e-15 4.49293e-16
286 1 0.6 0.7 0.1 0.00643263 -1.80411e-16 3.69062e-16
321 1 0.5 0.5 0.2 0.0759779 2.88485e-15 8.72566e-16
324 1 0.7 0.5 0.2 -0.00181159 2.84451e-15 8.69096e-16
331 1 0.5 0.7 0.2 0.0759779 -1.249e-16 1.09635e-15
333 1 0.6 0.6 0.2 0.00643263 -2.71831e-15 4.51028e-16
334 1 0.7 0.7 0.2 -0.00181159 -2.02095e-16 1.07119e-15
278 1 0.9 0.5 0 0.000124547 2.96985e-15 1.00614e-15
280 1 0.8 0.5 0.1 0.000621088 3.00454e-15 3.50414e-16
287 1 0.8 0.6 0 0.000621088 -2.94556e-15 9.99201e-16
288 1 0.9 0.7 0 0.000124547 -2.55004e-16 9.33281e-16
289 1 0.9 0.6 0.1 0.000124547 -2.85882e-15 2.91434e-16
290 1 0.8 0.7 0.1 0.000621088 -2.3679e-16 4.05925e-16
328 1 0.9 0.5 0.2 0.000124547 2.81025e-15 8.11851e-16
337 1 0.8 0.6 0.2 0.000621088 -2.60642e-15 8.70831e-16
338 1 0.9 0.7 0.2 0.000124547 -1.661e-16 1.13798e-15
291 1 0.5 0.9 0 0.0759779 0 7.63278e-16
292 1 0.5 0.8 0.1 0.0759779 -8.32667e-17 3.19189e-16
293 1 0.6 0.8 0 0.00643263 -8.67362e-18 9.74915e-16
294 1 0.7 0.9 0 -0.00181159 -2.41127e-16 9.53231e-16
295 1 0.7 0.8 0.1 -0.00181159 -2.42861e-17 3.19189e-16
296 1 0.6 0.9 0.1 0.00643263 -5.55112e-17 3.13985e-16
341 1 0.5 0.9 0.2 0.0759779 1.38778e-17 1.16573e-15
343 1 0.6 0.8 0.2 0.00643263 -1.73472e-17 8.11851e-16
344 1 0.7 0.9 0.2 -0.00181159 -1.74773e-16 1.11304e-15
297 1 0.8 0.8 0 0.000621088 -1.38778e-17 1.02696e-15
298 1 0.9 0.9 0 0.000124547 -9.71445e-17 7.91034e-16
299 1 0.9 0.8 0.1 0.000124547 -4.68375e-17 4.44089e-16
300 1 0.8 0.9 0.1 0.000621088 -1.76942e-16 3.98986e-16
347 1 0.8 0.8 0.2 0.000621088 -1.52656e-16 1.06772e-15
348 1 0.9 0.9 0.2 0.000124547 -2.63678e-16 1.05558e-15
302 1 0.5 0 0.3 0.0759779 5.48173e-16 -1.63064e-15
305 1 0.7 0 0.3 -0.00181159 8.33101e-16 -1.89345e-15
306 1 0.6 0.1 0.3 0.00643263 2.58474e-16 -1.39559e-15
312 1 0.5 0.2 0.3 0.0759779 1.11022e-15 -1.51268e-15
315 1 0.7 0.2 0.3 -0.00181159 1.11976e-15 -1.83967e-15
351 1 0.5 0.1 0.4 0.0759779 1.52656e-16 -1.31839e-16
352 1 0.6 0 0.4 0.00643263 1.02002e-15 -2.77556e-17
353 1 0.7 0.1 0.4 -0.00181159 2.81459e-16 -5.46438e-17
357 1 0.6 0.2 0.4 0.00643263 8.39606e-16 -2.68882e-16
309 1 0.9 0 0.3 0.000124547 7.07767e-16 -1.9082e-15
310 1 0.8 0.1 0.3 0.000621088 2.89699e-16 -1.84575e-15
319 1 0.9 0.2 0.3 0.000124547 1.09461e-15 -1.73819e-15
354 1 0.8 0 0.4 0.000621088 1.02002e-15 2.08167e-17
355 1 0.9 0.1 0.4 0.000124547 7.63278e-17 2.77556e-17
359 1 0.8 0.2 0.4 0.000621088 1.04864e-15 -1.40513e-16
316 1 0.6 0.3 0.3 0.00643263 -1.48145e-15 -1.59942e-15
322 1 0.5 0.4 0.3 0.0759779 1.52656e-16 -1.97065e-15
325 1 0.7 0.4 0.3 -0.00181159 1.30104e-16 -2.32193e-15
356 1 0.5 0.3 0.4 0.0759779 -1.95677e-15 -2.77556e-17
358 1 0.7 0.3 0.4 -0.00181159 -2.05478e-15 -1.71738e-16
362 1 0.6 0.4 0.4 0.00643263 8.32667e-17 -9.71445e-17
320 1 0.8 0.3 0.3 0.000621088 -1.84575e-15 -1.87003e-15
329 1 0.9 0.4 0.3 0.000124547 3.46945e-17 -2.17187e-15
360 1 0.9 0.3 0.4 0.000124547 -1.95677e-15 -5.55112e-17
364 1 0.8 0.4 0.4 0.000621088 1.19696e-16 -1.34441e-16
326 1 0.6 0.5 0.3 0.00643263 2.75821e-15 -1.59248e-15
332 1 0.5 0.6 0.3 0.0759779 -2.85882e-15 -1.70697e-15
335 1 0.7 0.6 0.3 -0.00181159 -2.6255e-15 -1.9082e-15
336 1 0.6 0.7 0.3 0.00643263 -1.76942e-16 -1.86483e-15
361 1 0.5 0.5 0.4 0.0759779 3.09908e-15 -5.20417e-17
363 1 0.7 0.5 0.4 -0.00181159 3.10212e-15 -1.22298e-16
366 1 0.5 0.7 0.4 0.0759779 -2.22045e-16 -3.46945e-17
367 1 0.6 0.6 0.4 0.00643263 -3.00801e-15 -4.16334e-17
368 1 0.7 0.7 0.4 -0.00181159 -1.81279e-16 -1.02349e-16
330 1 0.8 0.5 0.3 0.000621088 2.6229e-15 -1.88044e-15
339 1 0.9 0.6 0.3 0.000124547 -2.47025e-15 -1.81799e-15
340 1 0.8 0.7 0.3 0.000621088 -2.04697e-16 -2.22045e-15
365 1 0.9 0.5 0.4 0.000124547 3.07393e-15 -1.11022e-16
369 1 0.8 0.6 0.4 0.000621088 -2.81546e-15 -2.3679e-16
370 1 0.9 0.7 0.4 0.000124547 -2.15973e-16 -2.22045e-16
342 1 0.5 0.8 0.3 0.0759779 2.77556e-17 -1.9984e-15
345 1 0.7 0.8 0.3 -0.00181159 -4.16334e-17 -2.31672e-15
346 1 0.6 0.9 0.3 0.00643263 -1.14492e-16 -1.77115e-15
371 1 0.5 0.9 0.4 0.0759779 -8.32667e-17 2.08167e-17
372 1 0.6 0.8 0.4 0.00643263 -8.67362e-18 -1.45717e-16
373 1 0.7 0.9 0.4 -0.00181159 -1.04517e-16 2.1684e-17
349 1 0.9 0.8 0.3 0.000124547 -4.16334e-17 -2.13371e-15
350 1 0.8 0.9 0.3 0.000621088 -2.39392e-16 -2.13718e-15
374 1 0.8 0.8 0.4 0.000621088 -9.02056e-17 -1.78677e-16
375 1 0.9 0.9 0.4 0.000124547 -1.249e-16 2.77556e-17
376 1 0.5 0 0.5 0.0759779 7.42462e-16 2.97679e-15
377 1 0.7 0 0.5 -0.00181159 9.41955e-16 3.07653e-15
378 1 0.6 0.1 0.5 0.00643263 1.91687e-16 3.10516e-15
381 1 0.5 0.2 0.5 0.0759779 8.46545e-16 2.89352e-15
382 1 0.7 0.2 0.5 -0.00181159 7.63061e-16 2.97332e-15
401 1 0.5 0.1 0.6 0.0759779 2.22045e-16 -3.05311e-15
402 1 0.5 0 0.7 0.0759779 6.10623e-16 -1.38778e-16
403 1 0.6 0 0.6 0.00643263 8.04912e-16 -2.90653e-15
404 1 0.7 0.1 0.6 -0.00181159 3.66027e-16 -2.68535e-15
405 1 0.7 0 0.7 -0.00181159 8.59772e-16 2.94903e-17
406 1 0.6 0.1 0.7 0.00643263 3.90313e-16 -8.32667e-17
412 1 0.5 0.2 0.7 0.0759779 1.15186e-15 -2.08167e-16
413 1 0.6 0.2 0.6 0.00643263 5.75928e-16 -2.47241e-15
415 1 0.7 0.2 0.7 -0.00181159 1.16443e-15 -1.37477e-16
379 1 0.9 0 0.5 0.000124547 8.8124e-16 3.11556e-15
380 1 0.8 0.1 0.5 0.000621088 2.81025e-16 3.20577e-15
384 1 0.9 0.2 0.5 0.000124547 8.6953e-16 2.97852e-15
407 1 0.8 0 0.6 0.000621088 9.29812e-16 -2.74086e-15
408 1 0.9 0.1 0.6 0.000124547 5.55112e-17 -2.85882e-15
409 1 0.9 0 0.7 0.000124547 9.36751e-16 1.38778e-17
410 1 0.8 0.1 0.7 0.000621088 3.03577e-16 -1.52656e-16
417 1 0.8 0.2 0.6 0.000621088 7.97973e-16 -2.4542e-15
419 1 0.9 0.2 0.7 0.000124547 1.0777e-15 -2.25514e-16
383 1 0.6 0.3 0.5 0.00643263 -1.59595e-15 2.88658e-15
386 1 0.5 0.4 0.5 0.0759779 5.55112e-17 3.1225e-15
387 1 0.7 0.4 0.5 -0.00181159 1.65232e-16 3.35062e-15
411 1 0.5 0.3 0.6 0.0759779 -1.63758e-15 -2.69229e-15
414 1 0.7 0.3 0.6 -0.00181159 -1.72085e-15 -2.38351e-15
416 1 0.6 0.3 0.7 0.00643263 -1.81799e-15 -1.38778e-17
422 1 0.5 0.4 0.7 0.0759779 9.71445e-17 -1.66533e-16
423 1 0.6 0.4 0.6 0.00643263 6.93889e-17 -2.74693e-15
425 1 0.7 0.4 0.7 -0.00181159 1.30538e-16 -1.52222e-16
385 1 0.8 0.3 0.5 0.000621088 -1.78677e-15 2.83801e-15
389 1 0.9 0.4 0.5 0.000124547 7.63278e-17 3.19189e-15
418 1 0.9 0.3 0.6 0.000124547 -1.7009e-15 -2.40086e-15
420 1 0.8 0.3 0.7 0.000621088 -2.05044e-15 3.90313e-17
427 1 0.8 0.4 0.6 0.000621088 1.19262e-16 -2.65152e-15
429 1 0.9 0.4 0.7 0.000124547 1.38778e-17 -8.58688e-17
388 1 0.6 0.5 0.5 0.00643263 3.0323e-15 3.00454e-15
391 1 0.5 0.6 0.5 0.0759779 -3.08087e-15 3.13638e-15
392 1 0.7 0.6 0.5 -0.00181159 -2.98546e-15 3.08954e-15
393 1 0.6 0.7 0.5 0.00643263 -2.56739e-16 3.10255e-15
421 1 0.5 0.5 0.6 0.0759779 3.19579e-15 -2.98372e-15
424 1 0.7 0.5 0.6 -0.00181159 2.98806e-15 -2.63158e-15
426 1 0.6 0.5 0.7 0.00643263 3.07133e-15 -5.55112e-17
431 1 0.5 0.7 0.6 0.0759779 -2.25514e-16 -2.8727e-15
432 1 0.5 0.6 0.7 0.0759779 -3.10169e-15 -1.76942e-16
433 1 0.6 0.6 0.6 0.00643263 -2.98849e-15 -2.74043e-15
434 1 0.7 0.7 0.6 -0.00181159 -2.03396e-16 -2.60469e-15
435 1 0.7 0.6 0.7 -0.00181159 -3.03447e-15 -2.01228e-16
436 1 0.6 0.7 0.7 0.00643263 -1.8735e-16 -1.249e-16
390 1 0.8 0.5 0.5 0.000621088 3.10169e-15 3.09475e-15
394 1 0.9 0.6 0.5 0.000124547 -2.97679e-15 3.17454e-15
395 1 0.8 0.7 0.5 0.000621088 -2.61076e-16 3.11556e-15
428 1 0.9 0.5 0.6 0.000124547 2.98199e-15 -2.73392e-15
430 1 0.8 0.5 0.7 0.000621088 3.01148e-15 -1.13191e-16
437 1 0.8 0.6 0.6 0.000621088 -3.0336e-15 -2.68188e-15
438 1 0.9 0.7 0.6 0.000124547 -1.89952e-16 -2.58127e-15
439 1 0.9 0.6 0.7 0.000124547 -2.90046e-15 -7.24247e-17
440 1 0.8 0.7 0.7 0.000621088 -1.49186e-16 -1.9082e-17
396 1 0.5 0.8 0.5 0.0759779 -2.08167e-17 3.19016e-15
397 1 0.7 0.8 0.5 -0.00181159 -2.94903e-17 3.22355e-15
398 1 0.6 0.9 0.5 0.00643263 -5.89806e-17 2.95163e-15
441 1 0.5 0.9 0.6 0.0759779 -1.14492e-16 -2.9976e-15
442 1 0.5 0.8 0.7 0.0759779 -1.11022e-16 -1.94289e-16
443 1 0.6 0.8 0.6 0.00643263 -4.25007e-17 -2.72915e-15
444 1 0.7 0.9 0.6 -0.00181159 -1.32273e-16 -2.63331e-15
445 1 0.7 0.8 0.7 -0.00181159 -1.17528e-16 -1.06685e-16
446 1 0.6 0.9 0.7 0.00643263 -2.28983e-16 -6.93889e-17
399 1 0.9 0.8 0.5 0.000124547 2.08167e-17 3.20577e-15
400 1 0.8 0.9 0.5 0.000621088 2.34188e-17 3.21271e-15
447 1 0.8 0.8 0.6 0.000621088 6.93889e-18 -2.789e-15
448 1 0.9 0.9 0.6 0.000124547 1.38778e-17 -2.7478e-15
449 1 0.9 0.8 0.7 0.000124547 6.93889e-18 -3.46945e-17
450 1 0.8 0.9 0.7 0.000621088 -1.12757e-16 -4.85723e-17
451 1 0.5 0.1 0.8 0.0759779 3.33067e-16 -5.55112e-17
452 1 0.5 0 0.9 0.0759779 6.66134e-16 6.245e-17
453 1 0.6 0 0.8 0.00643263 9.71445e-16 3.46945e-18
454 1 0.7 0.1 0.8 -0.00181159 2.69316e-16 -6.59195e-17
455 1 0.7 0 0.9 -0.00181159 9.155e-16 -1.01481e-16
456 1 0.6 0.1 0.9 0.00643263 2.44596e-16 -6.93889e-17
462 1 0.5 0.2 0.9 0.0759779 1.13798e-15 -1.11022e-16
463 1 0.6 0.2 0.8 0.00643263 8.39606e-16 -3.29597e-17
465 1 0.7 0.2 0.9 -0.00181159 1.08572e-15 -2.28116e-16
457 1 0.8 0 0.8 0.000621088 9.08995e-16 2.94903e-17
458 1 0.9 0.1 0.8 0.000124547 2.91434e-16 -3.46945e-17
459 1 0.9 0 0.9 0.000124547 8.74301e-16 -3.05311e-16
460 1 0.8 0.1 0.9 0.000621088 1.8735e-16 -1.76942e-16
467 1 0.8 0.2 0.8 0.000621088 1.13061e-15 -6.93889e-17
469 1 0.9 0.2 0.9 0.000124547 1.00137e-15 -2.70617e-16
461 1 0.5 0.3 0.8 0.0759779 -1.81799e-15 4.16334e-17
464 1 0.7 0.3 0.8 -0.00181159 -2.18488e-15 -1.03216e-16
466 1 0.6 0.3 0.9 0.00643263 -1.69309e-15 -1.45717e-16
472 1 0.5 0.4 0.9 0.0759779 5.55112e-17 -2.22045e-16
473 1 0.6 0.4 0.8 0.00643263 -6.93889e-18 -1.56125e-17
475 1 0.7 0.4 0.9 -0.00181159 2.42861e-17 -1.67401e-16
468 1 0.9 0.3 0.8 0.000124547 -2.05391e-15 2.77556e-17
470 1 0.8 0.3 0.9 0.000621088 -2.08167e-15 -1.78677e-16
477 1 0.8 0.4 0.8 0.000621088 4.33681e-17 -1.38778e-16
479 1 0.9 0.4 0.9 0.000124547 5.55112e-17 -1.52656e-16
471 1 0.5 0.5 0.8 0.0759779 3.11426e-15 -3.46945e-17
474 1 0.7 0.5 0.8 -0.00181159 3.07046e-15 -1.49186e-16
476 1 0.6 0.5 0.9 0.00643263 3.0735e-15 -1.17961e-16
481 1 0.5 0.7 0.8 0.0759779 -2.08167e-16 -2.77556e-17
482 1 0.5 0.6 0.9 0.0759779 -3.05311e-15 -2.56739e-16
483 1 0.6 0.6 0.8 0.00643263 -2.89699e-15 -9.1073e-17
484 1 0.7 0.7 0.8 -0.00181159 -2.42861e-16 -1.2837e-16
485 1 0.7 0.6 0.9 -0.00181159 -2.959e-15 -2.57606e-16
486 1 0.6 0.7 0.9 0.00643263 -1.14492e-16 -3.97252e-16
478 1 0.9 0.5 0.8 0.000124547 2.98372e-15 -4.85723e-17
480 1 0.8 0.5 0.9 0.000621088 2.93515e-15 -3.60822e-16
487 1 0.8 0.6 0.8 0.000621088 -2.92301e-15 -9.71445e-17
488 1 0.9 0.7 0.8 0.000124547 -1.33574e-16 6.93889e-18
489 1 0.9 0.6 0.9 0.000124547 -2.94209e-15 -2.22045e-16
490 1 0.8 0.7 0.9 0.000621088 -1.55691e-16 -4.25007e-16
491 1 0.5 0.9 0.8 0.0759779 -1.80411e-16 -2.77556e-17
492 1 0.5 0.8 0.9 0.0759779 -1.73472e-16 -2.63678e-16
493 1 0.6 0.8 0.8 0.00643263 -5.20417e-17 1.21431e-17
494 1 0.7 0.9 0.8 -0.00181159 -1.71738e-16 -1.01481e-16
495 1 0.7 0.8 0.9 -0.00181159 -1.56125e-17 -2.23779e-16
496 1 0.6 0.9 0.9 0.00643263 -9.02056e-17 -1.249e-16
497 1 0.8 0.8 0.8 0.000621088 3.46945e-17 -2.08167e-17
498 1 0.9 0.9 0.8 0.000124547 -1.11022e-16 2.77556e-17
499 1 0.9 0.8 0.9 0.000124547 5.55112e-17 -1.52656e-16
500 1 0.8 0.9 0.9 0.000621088 -2.13371e-16 -3.46945e-16
