ITEM: TIMESTEP
0
ITEM: NUMBER OF ATOMS
250
ITEM: BOX BOUNDS pp pp pp
0.0000000000000000e+00 1.4276619999999999e+01
0.0000000000000000e+00 1.4276619999999999e+01
0.0000000000000000e+00 1.4276619999999999e+01
id type xs ys zs fx fy fz
1 1 0 0 0 0.000389683 2.498e-16 2.77556e-16
2 1 0.1 0.1 0.1 -0.000781534 1.2837e-15 8.25728e-16
11 1 0 0.2 0 0.000389683 2.0331e-15 2.35922e-15
26 1 0 0 0.2 0.000389683 1.30451e-15 9.4369e-16
36 1 0 0.2 0.2 0.000389683 3.19189e-15 1.02696e-15
3 1 0.2 0 0 0.0615211 2.22912e-16 2.23519e-15
4 1 0.3 0.1 0.1 0.201441 1.05471e-15 9.57567e-16
13 1 0.2 0.2 0 0.0615211 1.95677e-15 2.42861e-15
28 1 0.2 0 0.2 0.0615211 1.38778e-15 9.99201e-16
38 1 0.2 0.2 0.2 0.0615211 2.15843e-15 2.22738e-15
5 1 0.403502 0 0 -0.506961 6.66134e-16 2.8727e-15
6 1 0.5 0.1 0.1 0.185846 9.99201e-16 5.34295e-16
15 1 0.403502 0.2 0 -0.506961 1.02002e-15 1.82319e-15
30 1 0.403502 0 0.2 -0.506961 3.88578e-16 -9.71445e-17
40 1 0.403502 0.2 0.2 -0.506961 8.11851e-16 7.76722e-16
7 1 0.6 0 0 0.0591837 1.27676e-15 1.27676e-15
8 1 0.7 0.1 0.1 -0.00105898 1.27676e-15 8.88178e-16
17 1 0.6 0.2 0 0.0591837 8.91648e-16 3.53884e-15
32 1 0.6 0 0.2 0.0591837 1.33227e-15 6.93889e-16
42 1 0.6 0.2 0.2 0.0591837 1.93595e-15 -2.57606e-16
9 1 0.8 0 0 0.000420256 3.95517e-16 3.19189e-16
10 1 0.9 0.1 0.1 -1.52656e-16 1.20737e-15 8.46545e-16
19 1 0.8 0.2 0 0.000420256 1.97065e-15 2.47719e-15
34 1 0.8 0 0.2 0.000420256 2.42861e-16 -2.77556e-16
44 1 0.8 0.2 0.2 0.000420256 4.12864e-15 -2.56739e-16
12 1 0.1 0.3 0.1 -0.000781534 -4.80171e-15 9.64506e-16
21 1 0 0.4 0 0.000389683 6.93889e-16 4.16334e-16
46 1 0 0.4 0.2 0.000389683 7.77156e-16 -2.77556e-17
14 1 0.3 0.3 0.1 0.201441 -8.04912e-16 1.06859e-15
22 1 0.2 0.4 0 0.0615211 8.88178e-16 2.55438e-15
47 1 0.2 0.4 0.2 0.0615211 7.77156e-16 -2.35922e-16
16 1 0.5 0.3 0.1 0.185846 -2.66454e-15 8.88178e-16
23 1 0.403502 0.4 0 -0.506961 7.77156e-16 2.52576e-15
48 1 0.403502 0.4 0.2 -0.506961 5.55112e-16 2.77556e-17
18 1 0.7 0.3 0.1 -0.00105898 -4.94743e-15 7.97973e-16
24 1 0.6 0.4 0 0.0591837 8.88178e-16 3.33067e-16
49 1 0.6 0.4 0.2 0.0591837 6.66134e-16 1.55431e-15
20 1 0.9 0.3 0.1 -1.80411e-16 -4.79478e-15 7.21645e-16
25 1 0.8 0.4 0 0.000420256 6.03684e-16 2.15106e-16
50 1 0.8 0.4 0.2 0.000420256 7.07767e-16 -1.45717e-16
27 1 0.1 0.1 0.3 -0.000781534 1.11716e-15 -5.05845e-15
51 1 0 0 0.4 0.000389683 3.05311e-16 8.60423e-16
56 1 0 0.2 0.4 0.000389683 2.01228e-16 7.77156e-16
29 1 0.3 0.1 0.3 0.201441 1.05471e-15 -2.72005e-15
52 1 0.2 0 0.4 0.0615211 2.78423e-16 6.38378e-16
57 1 0.2 0.2 0.4 0.0615211 2.01922e-15 5.96745e-16
31 1 0.5 0.1 0.3 0.185846 9.99201e-16 -4.6213e-15
53 1 0.403502 0 0.4 -0.506961 4.44089e-16 7.77156e-16
58 1 0.403502 0.2 0.4 -0.506961 2.08514e-15 7.68482e-16
33 1 0.7 0.1 0.3 -0.00105898 1.05471e-15 -8.32667e-16
54 1 0.6 0 0.4 0.0591837 4.44089e-16 7.21645e-16
59 1 0.6 0.2 0.4 0.0591837 3.46945e-17 8.18789e-16
35 1 0.9 0.1 0.3 -2.22045e-16 9.99201e-16 -8.04912e-16
55 1 0.8 0 0.4 0.000420256 5.06539e-16 5.75928e-16
60 1 0.8 0.2 0.4 0.000420256 -2.77556e-17 7.28584e-16
37 1 0.1 0.3 0.3 -0.000781534 -2.7825e-15 -2.97679e-15
61 1 0 0.4 0.4 0.000389683 6.93889e-16 6.93889e-16
39 1 0.3 0.3 0.3 0.201441 -3.62904e-15 -3.71925e-15
62 1 0.2 0.4 0.4 0.0615211 6.66134e-16 5.82867e-16
41 1 0.5 0.3 0.3 0.185846 -1.9082e-15 -3.67067e-15
63 1 0.403502 0.4 0.4 -0.506961 6.66134e-16 8.60423e-16
43 1 0.7 0.3 0.3 -0.00105898 -2.83801e-15 -2.84495e-15
64 1 0.6 0.4 0.4 0.0591837 7.77156e-16 6.10623e-16
45 1 0.9 0.3 0.3 -6.93889e-17 -2.78944e-15 -2.91434e-15
65 1 0.8 0.4 0.4 0.000420256 5.89806e-16 5.89806e-16
66 1 0.1 0.1 0.5 -0.000781534 1.11716e-15 4.6213e-15
76 1 0 0 0.6 0.000389683 4.02456e-16 -4.96825e-15
77 1 0.1 0.1 0.7 -0.000781534 1.16573e-15 -1.34615e-15
86 1 0 0.2 0.6 0.000389683 1.83187e-15 -6.91114e-15
67 1 0.3 0.1 0.5 0.201441 1.05471e-15 5.98827e-15
78 1 0.2 0 0.6 0.0615211 7.77156e-16 -6.70471e-15
79 1 0.3 0.1 0.7 0.201441 1.16573e-15 -1.22125e-15
88 1 0.2 0.2 0.6 0.0615211 1.92988e-15 -6.43843e-15
68 1 0.5 0.1 0.5 0.185846 1.16573e-15 3.94129e-15
80 1 0.403502 0 0.6 -0.506961 4.44089e-16 -4.44089e-15
81 1 0.5 0.1 0.7 0.185846 9.99201e-16 -1.29757e-15
90 1 0.403502 0.2 0.6 -0.506961 1.79717e-15 -3.89879e-15
69 1 0.7 0.1 0.5 -0.00105898 8.88178e-16 4.57273e-15
82 1 0.6 0 0.6 0.0591837 3.88578e-16 -4.46865e-15
83 1 0.7 0.1 0.7 -0.00105898 1.16573e-15 -1.47105e-15
92 1 0.6 0.2 0.6 0.0591837 1.01308e-15 -5.33341e-15
70 1 0.9 0.1 0.5 5.55112e-17 1.04777e-15 4.56579e-15
84 1 0.8 0 0.6 0.000420256 4.44089e-16 -4.63518e-15
85 1 0.9 0.1 0.7 -1.38778e-16 9.78384e-16 -1.48492e-15
94 1 0.8 0.2 0.6 0.000420256 1.8735e-15 -6.6544e-15
71 1 0.1 0.3 0.5 -0.000781534 -2.67147e-15 6.09235e-15
87 1 0.1 0.3 0.7 -0.000781534 -8.39606e-16 -1.36696e-15
96 1 0 0.4 0.6 0.000389683 6.38378e-16 -4.85723e-15
72 1 0.3 0.3 0.5 0.201441 -1.70697e-15 5.06539e-15
89 1 0.3 0.3 0.7 0.201441 -2.76168e-15 -1.36696e-15
97 1 0.2 0.4 0.6 0.0615211 8.88178e-16 -6.42715e-15
73 1 0.5 0.3 0.5 0.185846 -2.77556e-15 3.71925e-15
91 1 0.5 0.3 0.7 0.185846 -2.9074e-15 -1.249e-15
98 1 0.403502 0.4 0.6 -0.506961 8.88178e-16 -4.30211e-15
74 1 0.7 0.3 0.5 -0.00105898 -2.6576e-15 6.48787e-15
93 1 0.7 0.3 0.7 -0.00105898 -7.97973e-16 -1.27676e-15
99 1 0.6 0.4 0.6 0.0591837 7.77156e-16 -4.38538e-15
75 1 0.9 0.3 0.5 -1.94289e-16 -2.62984e-15 6.43929e-15
95 1 0.9 0.3 0.7 -1.11022e-16 -7.00828e-16 -1.40166e-15
100 1 0.8 0.4 0.6 0.000420256 5.89806e-16 -4.76008e-15
101 1 0 0 0.8 0.000389683 2.91434e-16 8.32667e-17
102 1 0.1 0.1 0.9 -0.000781534 1.00614e-15 -1.80411e-16
111 1 0 0.2 0.8 0.000389683 2.08167e-17 1.249e-16
103 1 0.2 0 0.8 0.0615211 1.67401e-16 1.80411e-16
104 1 0.3 0.1 0.9 0.201441 9.99201e-16 1.8735e-16
113 1 0.2 0.2 0.8 0.0615211 1.99146e-15 -1.52656e-16
105 1 0.403502 0 0.8 -0.506961 3.33067e-16 1.38778e-17
106 1 0.5 0.1 0.9 0.185846 1.11022e-15 0
115 1 0.403502 0.2 0.8 -0.506961 2.19616e-15 1.02349e-16
107 1 0.6 0 0.8 0.0591837 3.33067e-16 1.249e-16
108 1 0.7 0.1 0.9 -0.00105898 1.11022e-15 -1.17961e-16
117 1 0.6 0.2 0.8 0.0591837 -1.04083e-16 1.52656e-16
109 1 0.8 0 0.8 0.000420256 1.73472e-16 1.73472e-16
110 1 0.9 0.1 0.9 -1.38778e-16 1.10328e-15 1.38778e-17
119 1 0.8 0.2 0.8 0.000420256 -1.11022e-16 -7.63278e-17
112 1 0.1 0.3 0.9 -0.000781534 -9.08995e-16 -2.15106e-16
121 1 0 0.4 0.8 0.000389683 8.04912e-16 1.52656e-16
114 1 0.3 0.3 0.9 0.201441 -2.61596e-15 -9.71445e-17
122 1 0.2 0.4 0.8 0.0615211 9.99201e-16 -1.38778e-16
116 1 0.5 0.3 0.9 0.185846 -2.76168e-15 -1.66533e-16
123 1 0.403502 0.4 0.8 -0.506961 8.88178e-16 1.11022e-16
118 1 0.7 0.3 0.9 -0.00105898 -8.39606e-16 -1.8735e-16
124 1 0.6 0.4 0.8 0.0591837 9.99201e-16 5.55112e-17
120 1 0.9 0.3 0.9 -9.71445e-17 -7.84095e-16 -2.77556e-17
125 1 0.8 0.4 0.8 0.000420256 8.25728e-16 1.17961e-16
126 1 0.1 0.5 0.1 -0.000781534 8.1532e-15 9.29812e-16
131 1 0 0.6 0 0.000389683 -5.85643e-15 1.3739e-15
132 1 0.1 0.7 0.1 -0.000781534 -1.23512e-15 9.15934e-16
156 1 0 0.6 0.2 0.000389683 -7.70911e-15 7.21645e-16
127 1 0.3 0.5 0.1 0.201441 4.21885e-15 1.33227e-15
133 1 0.2 0.6 0 0.0615211 -5.53897e-15 3.4972e-15
134 1 0.3 0.7 0.1 0.201441 -1.21257e-15 1.01481e-15
158 1 0.2 0.6 0.2 0.0615211 -6.54511e-15 2.64545e-16
128 1 0.5 0.5 0.1 0.185846 2.40086e-15 9.4369e-16
135 1 0.403502 0.6 0 -0.506961 -2.66454e-15 2.50494e-15
136 1 0.5 0.7 0.1 0.185846 -1.34615e-15 4.31946e-16
160 1 0.403502 0.6 0.2 -0.506961 -2.9976e-15 3.88578e-16
129 1 0.7 0.5 0.1 -0.00105898 4.4964e-15 9.71445e-16
137 1 0.6 0.6 0 0.0591837 -4.38538e-15 4.16334e-16
138 1 0.7 0.7 0.1 -0.00105898 -1.26635e-15 8.80372e-16
162 1 0.6 0.6 0.2 0.0591837 -4.32987e-15 1.93595e-15
130 1 0.9 0.5 0.1 -2.77556e-17 4.64906e-15 9.02056e-16
139 1 0.8 0.6 0 0.000420256 -4.69069e-15 3.747e-16
140 1 0.9 0.7 0.1 -1.66533e-16 -1.19349e-15 8.32667e-16
164 1 0.8 0.6 0.2 0.000420256 -6.56419e-15 2.01228e-15
141 1 0 0.8 0 0.000389683 6.93889e-17 2.22045e-16
142 1 0.1 0.9 0.1 -0.000781534 -1.17961e-16 7.14706e-16
166 1 0 0.8 0.2 0.000389683 9.71445e-17 -2.08167e-16
143 1 0.2 0.8 0 0.0615211 1.38778e-17 2.24907e-15
144 1 0.3 0.9 0.1 0.201441 -7.63278e-17 8.04912e-16
168 1 0.2 0.8 0.2 0.0615211 2.22045e-16 -6.245e-17
145 1 0.403502 0.8 0 -0.506961 4.16334e-17 2.87964e-15
146 1 0.5 0.9 0.1 0.185846 -2.77556e-17 8.32667e-16
170 1 0.403502 0.8 0.2 -0.506961 4.16334e-17 -2.42861e-16
147 1 0.6 0.8 0 0.0591837 1.249e-16 3.88578e-16
148 1 0.7 0.9 0.1 -0.00105898 -1.8735e-16 7.77156e-16
172 1 0.6 0.8 0.2 0.0591837 1.38778e-16 1.90126e-15
149 1 0.8 0.8 0 0.000420256 1.04083e-16 2.77556e-16
150 1 0.9 0.9 0.1 -1.66533e-16 -1.04083e-16 8.46545e-16
174 1 0.8 0.8 0.2 0.000420256 1.66533e-16 -2.84495e-16
151 1 0.1 0.5 0.3 -0.000781534 6.34909e-15 -2.52576e-15
157 1 0.1 0.7 0.3 -0.000781534 -1.19349e-15 -9.15934e-16
176 1 0 0.6 0.4 0.000389683 -4.79478e-15 6.52256e-16
152 1 0.3 0.5 0.3 0.201441 3.21965e-15 -3.80251e-15
159 1 0.3 0.7 0.3 0.201441 -1.23165e-15 -2.62117e-15
177 1 0.2 0.6 0.4 0.0615211 -4.59528e-15 7.21645e-16
153 1 0.5 0.5 0.3 0.185846 2.81719e-15 -3.46945e-15
161 1 0.5 0.7 0.3 0.185846 -1.0443e-15 -4.47559e-15
178 1 0.403502 0.6 0.4 -0.506961 -2.66454e-15 9.99201e-16
154 1 0.7 0.5 0.3 -0.00105898 6.30052e-15 -2.58127e-15
163 1 0.7 0.7 0.3 -0.00105898 -1.35482e-15 -8.80372e-16
179 1 0.6 0.6 0.4 0.0591837 -4.44089e-15 9.85323e-16
155 1 0.9 0.5 0.3 -2.35922e-16 6.52256e-15 -2.52576e-15
165 1 0.9 0.7 0.3 -1.11022e-16 -1.42247e-15 -7.49401e-16
180 1 0.8 0.6 0.4 0.000420256 -4.84335e-15 4.92661e-16
167 1 0.1 0.9 0.3 -0.000781534 -1.80411e-16 -9.64506e-16
181 1 0 0.8 0.4 0.000389683 9.71445e-17 7.49401e-16
169 1 0.3 0.9 0.3 0.201441 1.59595e-16 -2.59515e-15
182 1 0.2 0.8 0.4 0.0615211 8.32667e-17 9.57567e-16
171 1 0.5 0.9 0.3 0.185846 -1.38778e-17 -4.46865e-15
183 1 0.403502 0.8 0.4 -0.506961 2.77556e-17 6.45317e-16
173 1 0.7 0.9 0.3 -0.00105898 -5.55112e-17 -8.74301e-16
184 1 0.6 0.8 0.4 0.0591837 9.71445e-17 7.77156e-16
175 1 0.9 0.9 0.3 -1.38778e-16 -6.93889e-17 -8.88178e-16
185 1 0.8 0.8 0.4 0.000420256 6.93889e-17 6.80012e-16
186 1 0.1 0.5 0.5 -0.000781534 4.31599e-15 4.17721e-15
191 1 0.1 0.7 0.5 -0.000781534 -1.34615e-15 4.57967e-15
201 1 0.1 0.5 0.7 -0.000781534 4.79478e-15 -1.24206e-15
206 1 0 0.6 0.6 0.000389683 -4.5311e-15 -4.52416e-15
207 1 0.1 0.7 0.7 -0.000781534 -1.13798e-15 -1.21431e-15
187 1 0.3 0.5 0.5 0.201441 2.27596e-15 5.85643e-15
192 1 0.3 0.7 0.5 0.201441 -1.23165e-15 5.87204e-15
202 1 0.3 0.5 0.7 0.201441 2.38698e-15 -1.27676e-15
208 1 0.2 0.6 0.6 0.0615211 -3.60302e-15 -5.42795e-15
209 1 0.3 0.7 0.7 0.201441 -1.23512e-15 -1.12584e-15
188 1 0.5 0.5 0.5 0.185846 5.07927e-15 4.88498e-15
193 1 0.5 0.7 0.5 0.185846 -1.20043e-15 4.09742e-15
203 1 0.5 0.5 0.7 0.185846 4.10783e-15 -1.13798e-15
210 1 0.403502 0.6 0.6 -0.506961 -4.38538e-15 -5.93969e-15
211 1 0.5 0.7 0.7 0.185846 -1.2889e-15 -1.31839e-15
189 1 0.7 0.5 0.5 -0.00105898 4.38538e-15 4.30211e-15
194 1 0.7 0.7 0.5 -0.00105898 -1.30104e-15 4.62824e-15
204 1 0.7 0.5 0.7 -0.00105898 4.57967e-15 -1.30451e-15
212 1 0.6 0.6 0.6 0.0591837 -4.32987e-15 -4.30211e-15
213 1 0.7 0.7 0.7 -0.00105898 -1.33921e-15 -1.14492e-15
190 1 0.9 0.5 0.5 -1.94289e-16 4.3715e-15 4.14946e-15
195 1 0.9 0.7 0.5 1.11022e-16 -1.41553e-15 4.44089e-15
205 1 0.9 0.5 0.7 -8.32667e-17 4.92661e-15 -1.26288e-15
214 1 0.8 0.6 0.6 0.000420256 -4.62824e-15 -4.36456e-15
215 1 0.9 0.7 0.7 0 -1.31839e-15 -1.29063e-15
196 1 0.1 0.9 0.5 -0.000781534 1.249e-16 4.656e-15
216 1 0 0.8 0.6 0.000389683 1.66533e-16 -4.53804e-15
217 1 0.1 0.9 0.7 -0.000781534 -1.31839e-16 -1.38778e-15
197 1 0.3 0.9 0.5 0.201441 3.46945e-17 5.93969e-15
218 1 0.2 0.8 0.6 0.0615211 1.66533e-16 -6.28143e-15
219 1 0.3 0.9 0.7 0.201441 -6.93889e-17 -1.04083e-15
198 1 0.5 0.9 0.5 0.185846 -9.71445e-17 3.91354e-15
220 1 0.403502 0.8 0.6 -0.506961 4.16334e-17 -4.34375e-15
221 1 0.5 0.9 0.7 0.185846 -2.35922e-16 -1.16573e-15
199 1 0.7 0.9 0.5 -0.00105898 -4.16334e-17 4.55191e-15
222 1 0.6 0.8 0.6 0.0591837 1.66533e-16 -4.38538e-15
223 1 0.7 0.9 0.7 -0.00105898 -6.93889e-18 -1.29063e-15
200 1 0.9 0.9 0.5 -6.93889e-17 9.02056e-17 4.56579e-15
224 1 0.8 0.8 0.6 0.000420256 -1.38778e-17 -4.35069e-15
225 1 0.9 0.9 0.7 -1.11022e-16 -5.55112e-17 -1.42941e-15
226 1 0.1 0.5 0.9 -0.000781534 4.9058e-15 2.77556e-17
231 1 0 0.6 0.8 0.000389683 -4.996e-15 2.35922e-16
232 1 0.1 0.7 0.9 -0.000781534 -1.04083e-15 -2.91434e-16
227 1 0.3 0.5 0.9 0.201441 2.52576e-15 2.77556e-17
233 1 0.2 0.6 0.8 0.0615211 -4.59528e-15 1.11022e-16
234 1 0.3 0.7 0.9 0.201441 -1.16226e-15 1.29237e-16
228 1 0.5 0.5 0.9 0.185846 4.08007e-15 1.66533e-16
235 1 0.403502 0.6 0.8 -0.506961 -2.72005e-15 3.46945e-17
236 1 0.5 0.7 0.9 0.185846 -1.29063e-15 4.51028e-17
229 1 0.7 0.5 0.9 -0.00105898 4.66294e-15 -1.66533e-16
237 1 0.6 0.6 0.8 0.0591837 -4.44089e-15 3.05311e-16
238 1 0.7 0.7 0.9 -0.00105898 -1.23165e-15 6.07153e-17
230 1 0.9 0.5 0.9 2.77556e-17 4.64906e-15 -1.249e-16
239 1 0.8 0.6 0.8 0.000420256 -4.7462e-15 8.32667e-17
240 1 0.9 0.7 0.9 -1.11022e-16 -1.19349e-15 -8.32667e-17
241 1 0 0.8 0.8 0.000389683 9.02056e-17 8.32667e-17
242 1 0.1 0.9 0.9 -0.000781534 -1.38778e-16 -2.56739e-16
243 1 0.2 0.8 0.8 0.0615211 -1.38778e-17 1.11022e-16
244 1 0.3 0.9 0.9 0.201441 -1.66533e-16 5.55112e-17
245 1 0.403502 0.8 0.8 -0.506961 1.38778e-17 -4.16334e-17
246 1 0.5 0.9 0.9 0.185846 -2.498e-16 -1.66533e-16
247 1 0.6 0.8 0.8 0.0591837 1.249e-16 -4.16334e-17
248 1 0.7 0.9 0.9 -0.00105898 -5.55112e-17 -1.52656e-16
249 1 0.8 0.8 0.8 0.000420256 6.245e-17 -1.38778e-17
250 1 0.9 0.9 0.9 -1.52656e-16 -1.11022e-16 -1.52656e-16
