ITEM: TIMESTEP
0
ITEM: NUMBER OF ATOMS
500
ITEM: BOX BOUNDS pp pp pp
0.0000000000000000e+00 2.0199999999999999e+01
0.0000000000000000e+00 2.0199999999999999e+01
0.0000000000000000e+00 2.0199999999999999e+01
id type xs ys zs fx fy fz
1 1 0 0 0 0.000124189 3.747e-16 3.60822e-16
2 1 0.1 0.1 0 0.00460943 5.72459e-17 1.19696e-16
3 1 0.1 0 0.1 0.00460943 3.81639e-17 8.84709e-17
4 1 0 0.1 0.1 0.000124189 1.249e-16 9.36751e-17
21 1 0 0.2 0 0.000124189 1.20303e-15 8.06646e-16
23 1 0.1 0.2 0.1 0.00460943 2.39045e-15 2.19443e-16
51 1 0 0 0.2 0.000124189 7.58074e-16 1.19869e-15
52 1 0.1 0.1 0.2 0.00460943 2.77556e-16 2.40259e-15
71 1 0 0.2 0.2 0.000124189 1.59768e-15 1.63237e-15
5 1 0.2 0 0 -0.00370528 8.11796e-16 7.51948e-16
6 1 0.3 0.1 0 0.0979042 9.02056e-17 7.40727e-16
7 1 0.3 0 0.1 0.0979042 7.45931e-16 4.85723e-17
8 1 0.2 0.1 0.1 -0.00370528 2.07462e-16 1.36338e-16
25 1 0.2 0.2 0 -0.00370528 1.74199e-15 1.30023e-15
27 1 0.3 0.2 0.1 0.0979042 2.10335e-15 1.18991e-16
55 1 0.2 0 0.2 -0.00370528 1.21425e-15 1.63574e-15
56 1 0.3 0.1 0.2 0.0979042 2.70617e-16 2.12677e-15
75 1 0.2 0.2 0.2 -0.00370528 2.12189e-15 2.14726e-15
9 1 0.402475 0 0 -0.212331 2.42861e-16 3.93782e-16
10 1 0.5 0.1 0 0.108667 8.32667e-17 7.45931e-17
11 1 0.5 0 0.1 0.108667 5.55112e-17 5.37764e-17
12 1 0.402475 0.1 0.1 -0.212331 -8.32667e-17 6.245e-17
29 1 0.402475 0.2 0 -0.212331 1.62153e-15 7.29614e-16
31 1 0.5 0.2 0.1 0.108667 2.11896e-15 1.98301e-16
59 1 0.402475 0 0.2 -0.212331 7.84095e-16 1.56472e-15
60 1 0.5 0.1 0.2 0.108667 3.46945e-17 2.1632e-15
79 1 0.402475 0.2 0.2 -0.212331 2.01315e-15 2.04898e-15
13 1 0.6 0 0 -0.00275423 2.56739e-16 3.02709e-16
14 1 0.7 0.1 0 0.00735375 9.71445e-17 3.84512e-16
15 1 0.7 0 0.1 0.00735375 3.3594e-16 1.31839e-16
16 1 0.6 0.1 0.1 -0.00275423 -6.245e-17 6.41848e-17
33 1 0.6 0.2 0 -0.00275423 1.07293e-15 8.01388e-16
35 1 0.7 0.2 0.1 0.00735375 1.09494e-15 7.48642e-17
63 1 0.6 0 0.2 -0.00275423 8.39606e-16 1.06425e-15
64 1 0.7 0.1 0.2 0.00735375 1.38778e-17 1.14091e-15
83 1 0.6 0.2 0.2 -0.00275423 1.48926e-15 1.55865e-15
17 1 0.8 0 0 0.0001324 4.71845e-16 5.34295e-16
18 1 0.9 0.1 0 9.33465e-08 1.45717e-16 3.92048e-16
19 1 0.9 0 0.1 9.33465e-08 3.46945e-16 1.00614e-16
20 1 0.8 0.1 0.1 0.0001324 1.73472e-17 1.2837e-16
37 1 0.8 0.2 0 0.0001324 5.68989e-16 1.07726e-15
39 1 0.9 0.2 0.1 9.33465e-08 1.04083e-15 8.32667e-17
67 1 0.8 0 0.2 0.0001324 1.03043e-15 5.96745e-16
68 1 0.9 0.1 0.2 9.33465e-08 9.19403e-17 1.08594e-15
87 1 0.8 0.2 0.2 0.0001324 1.04083e-15 1.12237e-15
22 1 0.1 0.3 0 0.00460943 -1.39992e-15 7.75421e-16
24 1 0 0.3 0.1 0.000124189 -1.35308e-15 7.63278e-17
41 1 0 0.4 0 0.000124189 -4.16334e-17 3.85109e-16
42 1 0.1 0.4 0.1 0.00460943 4.85723e-17 -1.99493e-17
72 1 0.1 0.3 0.2 0.00460943 -2.36269e-15 1.69309e-15
91 1 0 0.4 0.2 0.000124189 -1.02349e-16 6.34909e-16
26 1 0.3 0.3 0 0.0979042 -1.92815e-15 1.47018e-15
28 1 0.2 0.3 0.1 -0.00370528 -2.3286e-15 1.03379e-16
43 1 0.2 0.4 0 -0.00370528 -2.01228e-16 9.7833e-16
44 1 0.3 0.4 0.1 0.0979042 -1.45717e-16 1.00614e-16
76 1 0.3 0.3 0.2 0.0979042 -2.71658e-15 1.33487e-15
93 1 0.2 0.4 0.2 -0.00370528 -1.94289e-16 1.15001e-15
30 1 0.5 0.3 0 0.108667 -1.20477e-15 7.40727e-16
32 1 0.402475 0.3 0.1 -0.212331 -1.7937e-15 1.04083e-16
45 1 0.402475 0.4 0 -0.212331 -6.07153e-17 3.1225e-16
46 1 0.5 0.4 0.1 0.108667 -1.38778e-17 1.11022e-16
80 1 0.5 0.3 0.2 0.108667 -2.02789e-15 1.43375e-15
95 1 0.402475 0.4 0.2 -0.212331 -9.71445e-17 1.05471e-15
34 1 0.7 0.3 0 0.00735375 -4.94396e-16 9.79522e-16
36 1 0.6 0.3 0.1 -0.00275423 -1.21951e-15 6.76542e-17
47 1 0.6 0.4 0 -0.00275423 -3.46945e-17 3.71231e-16
48 1 0.7 0.4 0.1 0.00735375 -7.34547e-17 -6.93889e-17
84 1 0.7 0.3 0.2 0.00735375 -1.3314e-15 5.39824e-16
97 1 0.6 0.4 0.2 -0.00275423 -4.16334e-17 5.27356e-16
38 1 0.9 0.3 0 9.33465e-08 -5.1955e-16 9.47159e-16
40 1 0.8 0.3 0.1 0.0001324 -1.02002e-15 1.8735e-16
49 1 0.8 0.4 0 0.0001324 1.07553e-16 5.82867e-16
50 1 0.9 0.4 0.1 9.33465e-08 -3.46945e-17 -3.46945e-17
88 1 0.9 0.3 0.2 9.33465e-08 -1.42941e-15 4.96131e-16
99 1 0.8 0.4 0.2 0.0001324 -5.55112e-17 -3.46945e-18
53 1 0.1 0 0.3 0.00460943 7.97973e-16 -1.37217e-15
54 1 0 0.1 0.3 0.000124189 9.71445e-17 -1.34615e-15
73 1 0.1 0.2 0.3 0.00460943 1.64799e-15 -2.34014e-15
101 1 0 0 0.4 0.000124189 4.26742e-16 -7.45931e-17
102 1 0.1 0.1 0.4 0.00460943 -9.02056e-17 -1.11022e-16
111 1 0 0.2 0.4 0.000124189 6.14959e-16 -1.64799e-16
57 1 0.3 0 0.3 0.0979042 1.39472e-15 -1.88217e-15
58 1 0.2 0.1 0.3 -0.00370528 1.86645e-16 -2.3286e-15
77 1 0.3 0.2 0.3 0.0979042 1.29844e-15 -2.66004e-15
103 1 0.2 0 0.4 -0.00370528 1.04078e-15 -1.12757e-16
104 1 0.3 0.1 0.4 0.0979042 7.63278e-17 5.20417e-17
113 1 0.2 0.2 0.4 -0.00370528 1.12009e-15 -1.63715e-16
61 1 0.5 0 0.3 0.108667 8.32667e-16 -1.27502e-15
62 1 0.402475 0.1 0.3 -0.212331 6.93889e-18 -1.79631e-15
81 1 0.5 0.2 0.3 0.108667 1.40816e-15 -2.05245e-15
105 1 0.402475 0 0.4 -0.212331 2.84495e-16 -1.34441e-16
106 1 0.5 0.1 0.4 0.108667 -1.38778e-17 -5.55112e-17
115 1 0.402475 0.2 0.4 -0.212331 1.01395e-15 -9.60061e-17
65 1 0.7 0 0.3 0.00735375 1.02289e-15 -4.93529e-16
66 1 0.6 0.1 0.3 -0.00275423 -2.08167e-17 -1.30538e-15
85 1 0.7 0.2 0.3 0.00735375 5.35487e-16 -1.25442e-15
107 1 0.6 0 0.4 -0.00275423 3.19189e-16 4.42354e-17
108 1 0.7 0.1 0.4 0.00735375 -5.55112e-17 -7.51894e-17
117 1 0.6 0.2 0.4 -0.00275423 5.29091e-16 -5.89806e-17
69 1 0.9 0 0.3 9.33465e-08 9.29812e-16 -4.75314e-16
70 1 0.8 0.1 0.3 0.0001324 3.81639e-17 -1.02175e-15
89 1 0.9 0.2 0.3 9.33465e-08 4.85723e-16 -1.38778e-15
109 1 0.8 0 0.4 0.0001324 5.93275e-16 4.16334e-17
110 1 0.9 0.1 0.4 9.33465e-08 -4.16334e-17 -4.85723e-17
119 1 0.8 0.2 0.4 0.0001324 4.85723e-17 -1.05818e-16
74 1 0 0.3 0.3 0.000124189 -1.38778e-15 -1.38084e-15
92 1 0.1 0.4 0.3 0.00460943 -2.08167e-17 -9.87058e-16
112 1 0.1 0.3 0.4 0.00460943 -8.69096e-16 -9.88792e-17
121 1 0 0.4 0.4 0.000124189 -6.93889e-17 -1.17961e-16
78 1 0.2 0.3 0.3 -0.00370528 -2.34594e-15 -2.27135e-15
94 1 0.3 0.4 0.3 0.0979042 -6.93889e-18 -1.33574e-15
114 1 0.3 0.3 0.4 0.0979042 -1.34615e-15 -9.80119e-17
122 1 0.2 0.4 0.4 -0.00370528 -9.02056e-17 -2.28983e-16
82 1 0.402475 0.3 0.3 -0.212331 -1.75381e-15 -1.68789e-15
96 1 0.5 0.4 0.3 0.108667 2.77556e-17 -7.07767e-16
116 1 0.5 0.3 0.4 0.108667 -6.80012e-16 3.20924e-17
123 1 0.402475 0.4 0.4 -0.212331 1.04083e-17 -3.46945e-18
86 1 0.6 0.3 0.3 -0.00275423 -1.17788e-15 -1.22125e-15
98 1 0.7 0.4 0.3 0.00735375 2.36898e-17 2.42861e-17
118 1 0.7 0.3 0.4 0.00735375 3.03577e-17 -8.64651e-17
124 1 0.6 0.4 0.4 -0.00275423 -2.08167e-17 -6.93889e-17
90 1 0.8 0.3 0.3 0.0001324 -1.03043e-15 -9.4022e-16
100 1 0.9 0.4 0.3 9.33465e-08 -4.16334e-17 1.73472e-17
120 1 0.9 0.3 0.4 9.33465e-08 4.33681e-18 -5.20417e-17
125 1 0.8 0.4 0.4 0.0001324 -3.1225e-17 5.89806e-17
126 1 0.1 0 0.5 0.00460943 2.25514e-16 3.67675e-15
127 1 0 0.1 0.5 0.000124189 1.38778e-17 3.74006e-15
136 1 0.1 0.2 0.5 0.00460943 1.6584e-15 3.9916e-15
151 1 0 0 0.6 0.000124189 2.8276e-16 -4.01415e-15
152 1 0.1 0.1 0.6 0.00460943 3.46945e-17 -3.81986e-15
153 1 0.1 0 0.7 0.00460943 3.50414e-16 -1.83881e-16
154 1 0 0.1 0.7 0.000124189 2.08167e-17 -7.97973e-17
171 1 0 0.2 0.6 0.000124189 1.06685e-15 -4.23619e-15
173 1 0.1 0.2 0.7 0.00460943 1.23859e-15 -1.56125e-16
128 1 0.3 0 0.5 0.0979042 9.57567e-16 4.0341e-15
129 1 0.2 0.1 0.5 -0.00370528 -7.64363e-18 3.9362e-15
138 1 0.3 0.2 0.5 0.0979042 1.36132e-15 4.1886e-15
155 1 0.2 0 0.6 -0.00370528 8.18735e-16 -4.23506e-15
156 1 0.3 0.1 0.6 0.0979042 2.08167e-17 -4.23273e-15
157 1 0.3 0 0.7 0.0979042 8.08381e-16 -2.86229e-16
158 1 0.2 0.1 0.7 -0.00370528 1.51951e-16 -2.01987e-16
175 1 0.2 0.2 0.6 -0.00370528 1.55724e-15 -4.54362e-15
177 1 0.3 0.2 0.7 0.0979042 1.0404e-15 -2.84386e-16
130 1 0.5 0 0.5 0.108667 3.33067e-16 4.02282e-15
131 1 0.402475 0.1 0.5 -0.212331 -1.38778e-17 3.72966e-15
140 1 0.5 0.2 0.5 0.108667 1.30278e-15 4.20887e-15
159 1 0.402475 0 0.6 -0.212331 1.66533e-16 -4.01588e-15
160 1 0.5 0.1 0.6 0.108667 7.63278e-17 -4.04191e-15
161 1 0.5 0 0.7 0.108667 2.498e-16 -2.55004e-16
162 1 0.402475 0.1 0.7 -0.212331 1.38778e-17 -2.04697e-16
179 1 0.402475 0.2 0.6 -0.212331 1.4949e-15 -4.23327e-15
181 1 0.5 0.2 0.7 0.108667 9.87925e-16 -2.27682e-16
132 1 0.7 0 0.5 0.00735375 3.42879e-16 3.9066e-15
133 1 0.6 0.1 0.5 -0.00275423 4.16334e-17 3.69843e-15
142 1 0.7 0.2 0.5 0.00735375 4.78242e-16 4.25896e-15
163 1 0.6 0 0.6 -0.00275423 3.53884e-16 -3.99507e-15
164 1 0.7 0.1 0.6 0.00735375 6.245e-17 -3.95549e-15
165 1 0.7 0 0.7 0.00735375 5.92679e-16 -2.26381e-16
166 1 0.6 0.1 0.7 -0.00275423 -2.77556e-17 -2.26381e-16
183 1 0.6 0.2 0.6 -0.00275423 8.79938e-16 -4.20313e-15
185 1 0.7 0.2 0.7 0.00735375 8.61941e-17 -9.21572e-17
134 1 0.9 0 0.5 9.33465e-08 3.46945e-16 3.8719e-15
135 1 0.8 0.1 0.5 0.0001324 1.49186e-16 3.88578e-15
144 1 0.9 0.2 0.5 9.33465e-08 4.64906e-16 4.27783e-15
167 1 0.8 0 0.6 0.0001324 3.60822e-16 -4.03844e-15
168 1 0.9 0.1 0.6 9.33465e-08 1.2837e-16 -4.01068e-15
169 1 0.9 0 0.7 9.33465e-08 5.34295e-16 -2.15106e-16
170 1 0.8 0.1 0.7 0.0001324 5.89806e-17 -9.02056e-17
187 1 0.8 0.2 0.6 0.0001324 5.23886e-16 -4.40273e-15
189 1 0.9 0.2 0.7 9.33465e-08 1.38778e-17 -1.42247e-16
137 1 0 0.3 0.5 0.000124189 -7.91034e-16 4.23619e-15
146 1 0.1 0.4 0.5 0.00460943 -1.35308e-16 3.89359e-15
172 1 0.1 0.3 0.6 0.00460943 -1.16573e-15 -4.27956e-15
174 1 0 0.3 0.7 0.000124189 -4.51028e-16 -1.52656e-16
191 1 0 0.4 0.6 0.000124189 4.51028e-17 -3.95864e-15
192 1 0.1 0.4 0.7 0.00460943 -4.51028e-17 -2.32453e-16
139 1 0.2 0.3 0.5 -0.00370528 -1.6694e-15 4.48177e-15
147 1 0.3 0.4 0.5 0.0979042 0 3.95864e-15
176 1 0.3 0.3 0.6 0.0979042 -1.63237e-15 -4.47732e-15
178 1 0.2 0.3 0.7 -0.00370528 -1.35715e-15 -1.37802e-16
193 1 0.2 0.4 0.6 -0.00370528 -1.31839e-16 -4.28103e-15
194 1 0.3 0.4 0.7 0.0979042 -8.32667e-17 -6.59195e-17
141 1 0.402475 0.3 0.5 -0.212331 -1.14839e-15 4.19109e-15
148 1 0.5 0.4 0.5 0.108667 -2.77556e-17 3.89272e-15
180 1 0.5 0.3 0.6 0.108667 -1.02175e-15 -4.48253e-15
182 1 0.402475 0.3 0.7 -0.212331 -7.66748e-16 -1.23165e-16
195 1 0.402475 0.4 0.6 -0.212331 -6.59195e-17 -3.9968e-15
196 1 0.5 0.4 0.7 0.108667 9.02056e-17 -1.249e-16
143 1 0.6 0.3 0.5 -0.00275423 -6.36644e-16 4.09221e-15
149 1 0.7 0.4 0.5 0.00735375 4.45065e-17 3.92048e-15
184 1 0.7 0.3 0.6 0.00735375 -3.71231e-16 -4.46724e-15
186 1 0.6 0.3 0.7 -0.00275423 -3.03577e-16 -1.49186e-16
197 1 0.6 0.4 0.6 -0.00275423 -2.77556e-17 -3.92568e-15
198 1 0.7 0.4 0.7 0.00735375 -5.2638e-17 -6.245e-17
145 1 0.8 0.3 0.5 0.0001324 -4.38885e-16 4.38538e-15
150 1 0.9 0.4 0.5 9.33465e-08 8.32667e-17 4.04884e-15
188 1 0.9 0.3 0.6 9.33465e-08 -3.90313e-16 -4.5311e-15
190 1 0.8 0.3 0.7 0.0001324 -5.72459e-17 -2.32453e-16
199 1 0.8 0.4 0.6 0.0001324 9.71445e-17 -4.11476e-15
200 1 0.9 0.4 0.7 9.33465e-08 4.16334e-17 -1.35308e-16
201 1 0 0 0.8 0.000124189 4.66641e-16 -2.70617e-16
202 1 0.1 0.1 0.8 0.00460943 1.89085e-16 -2.46331e-16
203 1 0.1 0 0.9 0.00460943 3.67761e-16 2.08167e-17
204 1 0 0.1 0.9 0.000124189 1.31839e-16 -4.16334e-17
221 1 0 0.2 0.8 0.000124189 6.03684e-16 -2.60209e-16
223 1 0.1 0.2 0.9 0.00460943 1.26288e-15 -5.9848e-17
205 1 0.2 0 0.8 -0.00370528 9.85269e-16 -2.41994e-16
206 1 0.3 0.1 0.8 0.0979042 6.245e-17 -2.32453e-16
207 1 0.3 0 0.9 0.0979042 8.98587e-16 1.61329e-16
208 1 0.2 0.1 0.9 -0.00370528 1.51951e-16 1.77918e-16
225 1 0.2 0.2 0.8 -0.00370528 1.22417e-15 -2.42644e-16
227 1 0.3 0.2 0.9 0.0979042 9.48026e-16 1.08529e-16
209 1 0.402475 0 0.8 -0.212331 3.81639e-16 -3.06179e-16
210 1 0.5 0.1 0.8 0.108667 9.02056e-17 -2.55004e-16
211 1 0.5 0 0.9 0.108667 2.63678e-16 6.76542e-17
212 1 0.402475 0.1 0.9 -0.212331 4.16334e-17 3.29597e-17
229 1 0.402475 0.2 0.8 -0.212331 1.11109e-15 -2.36519e-16
231 1 0.5 0.2 0.9 0.108667 1.00267e-15 -1.17094e-17
213 1 0.6 0 0.8 -0.00275423 3.40006e-16 -2.78423e-16
214 1 0.7 0.1 0.8 0.00735375 5.55112e-17 -3.70092e-16
215 1 0.7 0 0.9 0.00735375 5.99618e-16 -1.99493e-17
216 1 0.6 0.1 0.9 -0.00275423 4.16334e-17 -8.67362e-19
233 1 0.6 0.2 0.8 -0.00275423 5.48173e-16 -3.13985e-16
235 1 0.7 0.2 0.9 0.00735375 9.3133e-17 8.95551e-17
217 1 0.8 0 0.8 0.0001324 5.75928e-16 -3.1225e-16
218 1 0.9 0.1 0.8 9.33465e-08 1.37043e-16 -3.46945e-16
219 1 0.9 0 0.9 9.33465e-08 5.27356e-16 -2.42861e-17
220 1 0.8 0.1 0.9 0.0001324 1.2837e-16 3.46945e-18
237 1 0.8 0.2 0.8 0.0001324 5.55112e-17 -3.60822e-16
239 1 0.9 0.2 0.9 9.33465e-08 5.55112e-17 1.38778e-17
222 1 0.1 0.3 0.8 0.00460943 -9.87058e-16 -2.60209e-16
224 1 0 0.3 0.9 0.000124189 -5.41234e-16 1.38778e-17
241 1 0 0.4 0.8 0.000124189 5.20417e-18 -2.74086e-16
242 1 0.1 0.4 0.9 0.00460943 1.73472e-17 2.34188e-17
226 1 0.3 0.3 0.8 0.0979042 -1.40252e-15 -2.74954e-16
228 1 0.2 0.3 0.9 -0.00370528 -1.44909e-15 6.16911e-17
243 1 0.2 0.4 0.8 -0.00370528 -1.45717e-16 -2.89699e-16
244 1 0.3 0.4 0.9 0.0979042 2.08167e-17 -3.1225e-17
230 1 0.5 0.3 0.8 0.108667 -8.26596e-16 -2.6975e-16
232 1 0.402475 0.3 0.9 -0.212331 -8.36137e-16 -2.42861e-17
245 1 0.402475 0.4 0.8 -0.212331 9.71445e-17 -2.63678e-16
246 1 0.5 0.4 0.9 0.108667 1.52656e-16 -6.93889e-17
234 1 0.7 0.3 0.8 0.00735375 -4.59702e-17 -3.38867e-16
236 1 0.6 0.3 0.9 -0.00275423 -3.66027e-16 3.1225e-17
247 1 0.6 0.4 0.8 -0.00275423 6.93889e-18 -3.33067e-16
248 1 0.7 0.4 0.9 0.00735375 1.13895e-16 3.46945e-18
238 1 0.9 0.3 0.8 9.33465e-08 -9.71445e-17 -2.67147e-16
240 1 0.8 0.3 0.9 0.0001324 -1.42247e-16 1.04083e-17
249 1 0.8 0.4 0.8 0.0001324 1.11022e-16 -3.57353e-16
250 1 0.9 0.4 0.9 9.33465e-08 5.55112e-17 -6.93889e-18
251 1 0.1 0.5 0 0.00460943 3.71231e-15 1.33574e-16
252 1 0 0.5 0.1 0.000124189 3.77476e-15 3.46945e-17
261 1 0 0.6 0 0.000124189 -4.02456e-15 2.84495e-16
262 1 0.1 0.7 0 0.00460943 -2.46331e-16 3.07046e-16
263 1 0.1 0.6 0.1 0.00460943 -3.80772e-15 6.07153e-17
264 1 0 0.7 0.1 0.000124189 -1.66533e-16 6.93889e-17
301 1 0.1 0.5 0.2 0.00460943 3.97425e-15 1.55084e-15
311 1 0 0.6 0.2 0.000124189 -4.29518e-15 1.07726e-15
312 1 0.1 0.7 0.2 0.00460943 -1.76942e-16 1.30798e-15
253 1 0.3 0.5 0 0.0979042 3.94476e-15 8.22259e-16
254 1 0.2 0.5 0.1 -0.00370528 4.06543e-15 1.5889e-16
265 1 0.2 0.6 0 -0.00370528 -4.25327e-15 7.45877e-16
266 1 0.3 0.7 0 0.0979042 -2.43295e-16 9.44611e-16
267 1 0.3 0.6 0.1 0.0979042 -4.12864e-15 2.11636e-16
268 1 0.2 0.7 0.1 -0.00370528 -1.43874e-16 1.73364e-16
303 1 0.3 0.5 0.2 0.0979042 4.22926e-15 1.37043e-15
315 1 0.2 0.6 0.2 -0.00370528 -4.56552e-15 1.56114e-15
316 1 0.3 0.7 0.2 0.0979042 -2.27682e-16 1.02533e-15
255 1 0.5 0.5 0 0.108667 3.98293e-15 2.22045e-16
256 1 0.402475 0.5 0.1 -0.212331 3.73312e-15 6.59195e-17
269 1 0.402475 0.6 0 -0.212331 -4.02456e-15 2.34188e-16
270 1 0.5 0.7 0 0.108667 -2.02095e-16 2.39771e-16
271 1 0.5 0.6 0.1 0.108667 -3.97599e-15 6.41848e-17
272 1 0.402475 0.7 0.1 -0.212331 -1.23165e-16 1.51626e-16
305 1 0.5 0.5 0.2 0.108667 4.18415e-15 1.41206e-15
319 1 0.402475 0.6 0.2 -0.212331 -4.23966e-15 1.50574e-15
320 1 0.5 0.7 0.2 0.108667 -1.44849e-16 9.71011e-16
257 1 0.7 0.5 0 0.00735375 3.8719e-15 4.33085e-16
258 1 0.6 0.5 0.1 -0.00275423 3.6568e-15 6.93889e-17
273 1 0.6 0.6 0 -0.00275423 -3.9968e-15 3.10516e-16
274 1 0.7 0.7 0 0.00735375 -1.71738e-16 5.49419e-16
275 1 0.7 0.6 0.1 0.00735375 -3.9659e-15 8.84709e-17
276 1 0.6 0.7 0.1 -0.00275423 -1.23165e-16 -5.58364e-18
307 1 0.7 0.5 0.2 0.00735375 4.18762e-15 5.30283e-16
323 1 0.6 0.6 0.2 -0.00275423 -4.32293e-15 9.05526e-16
324 1 0.7 0.7 0.2 0.00735375 0 8.33751e-17
259 1 0.9 0.5 0 9.33465e-08 3.84415e-15 3.64292e-16
260 1 0.8 0.5 0.1 0.0001324 3.9517e-15 1.35308e-16
277 1 0.8 0.6 0 0.0001324 -4.05578e-15 4.12864e-16
278 1 0.9 0.7 0 9.33465e-08 -3.17454e-16 5.10009e-16
279 1 0.9 0.6 0.1 9.33465e-08 -4.00374e-15 5.55112e-17
280 1 0.8 0.7 0.1 0.0001324 -1.63064e-16 1.73472e-16
309 1 0.9 0.5 0.2 9.33465e-08 4.25875e-15 4.96131e-16
327 1 0.8 0.6 0.2 0.0001324 -4.39926e-15 4.87457e-16
328 1 0.9 0.7 0.2 9.33465e-08 -1.56125e-16 2.08167e-17
281 1 0 0.8 0 0.000124189 -3.01842e-16 4.33681e-16
282 1 0.1 0.9 0 0.00460943 5.55112e-17 3.46945e-16
283 1 0.1 0.8 0.1 0.00460943 -2.5327e-16 2.2031e-16
284 1 0 0.9 0.1 0.000124189 -2.08167e-17 1.80411e-16
331 1 0 0.8 0.2 0.000124189 -2.86229e-16 6.34909e-16
332 1 0.1 0.9 0.2 0.00460943 -5.20417e-17 1.29584e-15
285 1 0.2 0.8 0 -0.00370528 -2.22912e-16 9.55778e-16
286 1 0.3 0.9 0 0.0979042 1.96024e-16 9.57567e-16
287 1 0.3 0.8 0.1 0.0979042 -2.18575e-16 2.60209e-16
288 1 0.2 0.9 0.1 -0.00370528 6.42932e-17 2.31748e-16
335 1 0.2 0.8 0.2 -0.00370528 -2.54137e-16 1.11142e-15
336 1 0.3 0.9 0.2 0.0979042 2.77556e-17 9.19403e-16
289 1 0.402475 0.8 0 -0.212331 -2.43729e-16 4.43222e-16
290 1 0.5 0.9 0 0.108667 7.45931e-17 2.65413e-16
291 1 0.5 0.8 0.1 0.108667 -2.72352e-16 1.8735e-16
292 1 0.402475 0.9 0.1 -0.212331 8.67362e-17 1.73472e-16
339 1 0.402475 0.8 0.2 -0.212331 -2.47198e-16 1.05298e-15
340 1 0.5 0.9 0.2 0.108667 4.51028e-17 1.00787e-15
293 1 0.6 0.8 0 -0.00275423 -2.45463e-16 3.72966e-16
294 1 0.7 0.9 0 0.00735375 2.60209e-17 5.47576e-16
295 1 0.7 0.8 0.1 0.00735375 -3.35398e-16 1.82146e-16
296 1 0.6 0.9 0.1 -0.00275423 0 6.07153e-17
343 1 0.6 0.8 0.2 -0.00275423 -3.36536e-16 5.31693e-16
344 1 0.7 0.9 0.2 0.00735375 3.90313e-17 1.39103e-16
297 1 0.8 0.8 0 0.0001324 -3.24393e-16 5.25621e-16
298 1 0.9 0.9 0 9.33465e-08 6.59195e-17 5.30825e-16
299 1 0.9 0.8 0.1 9.33465e-08 -2.98372e-16 2.04697e-16
300 1 0.8 0.9 0.1 0.0001324 3.46945e-17 2.32453e-16
347 1 0.8 0.8 0.2 0.0001324 -3.34802e-16 1.73472e-17
348 1 0.9 0.9 0.2 9.33465e-08 5.55112e-17 3.46945e-18
302 1 0 0.5 0.3 0.000124189 4.26048e-15 -7.97973e-16
313 1 0.1 0.6 0.3 0.00460943 -4.26915e-15 -1.18395e-15
314 1 0 0.7 0.3 0.000124189 -1.80411e-16 -4.44089e-16
351 1 0.1 0.5 0.4 0.00460943 3.81639e-15 -7.97973e-17
356 1 0 0.6 0.4 0.000124189 -3.96905e-15 6.93889e-18
357 1 0.1 0.7 0.4 0.00460943 -2.58474e-16 -8.67362e-18
304 1 0.2 0.5 0.3 -0.00370528 4.55809e-15 -1.6694e-15
317 1 0.3 0.6 0.3 0.0979042 -4.50334e-15 -1.58207e-15
318 1 0.2 0.7 0.3 -0.00370528 -1.52547e-16 -1.37043e-15
352 1 0.3 0.5 0.4 0.0979042 3.95517e-15 -6.93889e-18
358 1 0.2 0.6 0.4 -0.00370528 -4.3296e-15 -1.21431e-16
359 1 0.3 0.7 0.4 0.0979042 -1.39212e-16 -1.2902e-17
306 1 0.402475 0.5 0.3 -0.212331 4.21191e-15 -1.10675e-15
321 1 0.5 0.6 0.3 0.108667 -4.51722e-15 -8.75168e-16
322 1 0.402475 0.7 0.3 -0.212331 -2.01228e-16 -8.49689e-16
353 1 0.5 0.5 0.4 0.108667 4.01068e-15 -3.1225e-17
360 1 0.402475 0.6 0.4 -0.212331 -3.9968e-15 5.20417e-18
361 1 0.5 0.7 0.4 0.108667 -2.35055e-16 1.87784e-16
308 1 0.6 0.5 0.3 -0.00275423 4.10089e-15 -5.75928e-16
325 1 0.7 0.6 0.3 0.00735375 -4.49326e-15 -2.87964e-16
326 1 0.6 0.7 0.3 -0.00275423 -8.50015e-17 -2.22695e-16
354 1 0.7 0.5 0.4 0.00735375 3.98466e-15 -2.48824e-17
362 1 0.6 0.6 0.4 -0.00275423 -3.94129e-15 -5.20417e-18
363 1 0.7 0.7 0.4 0.00735375 -1.73472e-18 -6.45642e-17
310 1 0.8 0.5 0.3 0.0001324 4.36109e-15 -3.72966e-16
329 1 0.9 0.6 0.3 9.33465e-08 -4.51722e-15 -3.95517e-16
330 1 0.8 0.7 0.3 0.0001324 -1.56125e-16 -4.33681e-17
355 1 0.9 0.5 0.4 9.33465e-08 4.0315e-15 4.16334e-17
364 1 0.8 0.6 0.4 0.0001324 -4.14946e-15 7.97973e-17
365 1 0.9 0.7 0.4 9.33465e-08 -1.19696e-16 1.73472e-17
333 1 0.1 0.8 0.3 0.00460943 -2.58474e-16 -1.00094e-15
334 1 0 0.9 0.3 0.000124189 6.93889e-18 -5.23886e-16
366 1 0 0.8 0.4 0.000124189 -2.64545e-16 -4.51028e-17
367 1 0.1 0.9 0.4 0.00460943 2.08167e-17 -5.55112e-17
337 1 0.3 0.8 0.3 0.0979042 -2.8276e-16 -1.53176e-15
338 1 0.2 0.9 0.3 -0.00370528 -8.5652e-18 -1.4994e-15
368 1 0.2 0.8 0.4 -0.00370528 -2.93168e-16 -1.67401e-16
369 1 0.3 0.9 0.4 0.0979042 5.20417e-17 -5.72459e-17
341 1 0.5 0.8 0.3 0.108667 -2.7929e-16 -8.76035e-16
342 1 0.402475 0.9 0.3 -0.212331 1.02349e-16 -9.47159e-16
370 1 0.402475 0.8 0.4 -0.212331 -2.77556e-16 -3.98986e-17
371 1 0.5 0.9 0.4 0.108667 3.46945e-17 1.07553e-16
345 1 0.7 0.8 0.3 0.00735375 -3.80501e-16 -5.89806e-17
346 1 0.6 0.9 0.3 -0.00275423 1.9082e-17 -3.5822e-16
372 1 0.6 0.8 0.4 -0.00275423 -3.66027e-16 -8.1532e-17
373 1 0.7 0.9 0.4 0.00735375 6.59195e-17 4.60786e-18
349 1 0.9 0.8 0.3 9.33465e-08 -2.35922e-16 -1.14492e-16
350 1 0.8 0.9 0.3 0.0001324 -7.97973e-17 -1.66533e-16
374 1 0.8 0.8 0.4 0.0001324 -3.53884e-16 2.77556e-17
375 1 0.9 0.9 0.4 9.33465e-08 4.85723e-17 2.77556e-17
376 1 0 0.5 0.5 0.000124189 3.88578e-15 3.83374e-15
381 1 0.1 0.6 0.5 0.00460943 -3.79037e-15 3.63511e-15
382 1 0 0.7 0.5 0.000124189 -1.94289e-16 3.92394e-15
401 1 0.1 0.5 0.6 0.00460943 3.65333e-15 -3.79557e-15
402 1 0 0.5 0.7 0.000124189 3.84415e-15 -2.498e-16
411 1 0 0.6 0.6 0.000124189 -3.92915e-15 -3.95343e-15
412 1 0.1 0.7 0.6 0.00460943 -1.63064e-16 -3.87537e-15
413 1 0.1 0.6 0.7 0.00460943 -3.91701e-15 -1.38778e-16
414 1 0 0.7 0.7 0.000124189 -1.8735e-16 -2.46331e-16
377 1 0.2 0.5 0.5 -0.00370528 4.10707e-15 4.08625e-15
383 1 0.3 0.6 0.5 0.0979042 -4.06619e-15 3.78603e-15
384 1 0.2 0.7 0.5 -0.00370528 -1.9765e-16 4.13536e-15
403 1 0.3 0.5 0.6 0.0979042 3.9066e-15 -4.03844e-15
404 1 0.2 0.5 0.7 -0.00370528 4.12788e-15 -1.5168e-16
415 1 0.2 0.6 0.6 -0.00370528 -4.22552e-15 -4.25327e-15
416 1 0.3 0.7 0.6 0.0979042 -1.83447e-16 -4.27978e-15
417 1 0.3 0.6 0.7 0.0979042 -4.27436e-15 -2.2031e-16
418 1 0.2 0.7 0.7 -0.00370528 -2.04589e-16 -2.31802e-16
378 1 0.402475 0.5 0.5 -0.212331 3.81639e-15 3.63945e-15
385 1 0.5 0.6 0.5 0.108667 -4.08701e-15 3.7843e-15
386 1 0.402475 0.7 0.5 -0.212331 -2.07733e-16 3.89164e-15
405 1 0.5 0.5 0.6 0.108667 3.95517e-15 -4.08701e-15
406 1 0.402475 0.5 0.7 -0.212331 3.88578e-15 -7.80626e-17
419 1 0.402475 0.6 0.6 -0.212331 -3.86496e-15 -3.88405e-15
420 1 0.5 0.7 0.6 0.108667 -3.02709e-16 -4.15884e-15
421 1 0.5 0.6 0.7 0.108667 -4.17721e-15 -3.01842e-16
422 1 0.402475 0.7 0.7 -0.212331 -1.96024e-16 -2.14022e-16
379 1 0.6 0.5 0.5 -0.00275423 3.78864e-15 3.66374e-15
387 1 0.7 0.6 0.5 0.00735375 -3.99366e-15 3.8294e-15
388 1 0.6 0.7 0.5 -0.00275423 -2.34188e-16 3.88009e-15
407 1 0.7 0.5 0.6 0.00735375 3.8719e-15 -3.98325e-15
408 1 0.6 0.5 0.7 -0.00275423 3.85803e-15 -1.68268e-16
423 1 0.6 0.6 0.6 -0.00275423 -3.85803e-15 -3.92394e-15
424 1 0.7 0.7 0.6 0.00735375 -2.02095e-16 -4.18198e-15
425 1 0.7 0.6 0.7 0.00735375 -4.13938e-15 -2.59341e-16
426 1 0.6 0.7 0.7 -0.00275423 -1.61329e-16 -1.73093e-16
380 1 0.8 0.5 0.5 0.0001324 3.9517e-15 3.92741e-15
389 1 0.9 0.6 0.5 9.33465e-08 -4.13558e-15 4.00721e-15
390 1 0.8 0.7 0.5 0.0001324 -2.77556e-16 4.09395e-15
409 1 0.9 0.5 0.6 9.33465e-08 3.9916e-15 -4.12864e-15
410 1 0.8 0.5 0.7 0.0001324 4.04884e-15 -2.98372e-16
427 1 0.8 0.6 0.6 0.0001324 -4.04538e-15 -4.04884e-15
428 1 0.9 0.7 0.6 9.33465e-08 -2.56739e-16 -4.18589e-15
429 1 0.9 0.6 0.7 9.33465e-08 -4.17028e-15 -3.08781e-16
430 1 0.8 0.7 0.7 0.0001324 -2.91434e-16 -2.75821e-16
391 1 0.1 0.8 0.5 0.00460943 -2.75821e-16 3.8641e-15
392 1 0 0.9 0.5 0.000124189 -2.08167e-17 3.98639e-15
431 1 0 0.8 0.6 0.000124189 -3.02709e-16 -4.03497e-15
432 1 0.1 0.9 0.6 0.00460943 -2.94903e-17 -4.05231e-15
433 1 0.1 0.8 0.7 0.00460943 -3.40006e-16 -2.00361e-16
434 1 0 0.9 0.7 0.000124189 -1.38778e-17 -2.11636e-16
393 1 0.3 0.8 0.5 0.0979042 -3.1225e-16 4.11997e-15
394 1 0.2 0.9 0.5 -0.00370528 7.91468e-18 4.24931e-15
435 1 0.2 0.8 0.6 -0.00370528 -2.89699e-16 -4.31052e-15
436 1 0.3 0.9 0.6 0.0979042 1.34441e-16 -4.3212e-15
437 1 0.3 0.8 0.7 0.0979042 -2.41127e-16 -3.34802e-16
438 1 0.2 0.9 0.7 -0.00370528 5.56196e-17 -2.86121e-16
395 1 0.5 0.8 0.5 0.108667 -3.50414e-16 4.09395e-15
396 1 0.402475 0.9 0.5 -0.212331 2.94903e-17 4.05231e-15
439 1 0.402475 0.8 0.6 -0.212331 -2.67147e-16 -4.05578e-15
440 1 0.5 0.9 0.6 0.108667 3.46945e-17 -4.24834e-15
441 1 0.5 0.8 0.7 0.108667 -2.96638e-16 -3.17454e-16
442 1 0.402475 0.9 0.7 -0.212331 0 -3.38271e-16
397 1 0.7 0.8 0.5 0.00735375 -3.09377e-16 3.98119e-15
398 1 0.6 0.9 0.5 -0.00275423 2.60209e-17 4.00201e-15
443 1 0.6 0.8 0.6 -0.00275423 -2.84495e-16 -4.11476e-15
444 1 0.7 0.9 0.6 0.00735375 1.05818e-16 -4.22785e-15
445 1 0.7 0.8 0.7 0.00735375 -2.8856e-16 -3.01842e-16
446 1 0.6 0.9 0.7 -0.00275423 4.68375e-17 -1.79544e-16
399 1 0.9 0.8 0.5 9.33465e-08 -2.498e-16 4.01415e-15
400 1 0.8 0.9 0.5 0.0001324 -4.16334e-17 4.02803e-15
447 1 0.8 0.8 0.6 0.0001324 -3.31332e-16 -4.18242e-15
448 1 0.9 0.9 0.6 9.33465e-08 4.85723e-17 -4.26742e-15
449 1 0.9 0.8 0.7 9.33465e-08 -2.70617e-16 -3.08781e-16
450 1 0.8 0.9 0.7 0.0001324 6.245e-17 -3.26128e-16
451 1 0.1 0.5 0.8 0.00460943 3.90139e-15 -2.84495e-16
452 1 0 0.5 0.9 0.000124189 3.91354e-15 4.51028e-17
461 1 0 0.6 0.8 0.000124189 -4.08874e-15 -2.89699e-16
462 1 0.1 0.7 0.8 0.00460943 -1.35308e-16 -2.70617e-16
463 1 0.1 0.6 0.9 0.00460943 -4.00895e-15 -6.41848e-17
464 1 0 0.7 0.9 0.000124189 -2.35922e-16 1.73472e-17
453 1 0.3 0.5 0.8 0.0979042 4.12517e-15 -2.56739e-16
454 1 0.2 0.5 0.9 -0.00370528 4.19727e-15 -2.50451e-17
465 1 0.2 0.6 0.8 -0.00370528 -4.4198e-15 -2.28983e-16
466 1 0.3 0.7 0.8 0.0979042 -2.91867e-16 -2.94795e-16
467 1 0.3 0.6 0.9 0.0979042 -4.39232e-15 -6.50521e-17
468 1 0.2 0.7 0.9 -0.00370528 -3.15611e-16 2.38524e-18
455 1 0.5 0.5 0.8 0.108667 4.05925e-15 -3.22659e-16
456 1 0.402475 0.5 0.9 -0.212331 3.98986e-15 -1.21431e-16
469 1 0.402475 0.6 0.8 -0.212331 -4.18415e-15 -2.70617e-16
470 1 0.5 0.7 0.8 0.108667 -2.9924e-16 -3.51715e-16
471 1 0.5 0.6 0.9 0.108667 -4.26048e-15 -4.16334e-17
472 1 0.402475 0.7 0.9 -0.212331 -3.40006e-16 -8.0231e-18
457 1 0.7 0.5 0.8 0.00735375 3.97946e-15 -3.05908e-16
458 1 0.6 0.5 0.9 -0.00275423 3.93435e-15 -5.72459e-17
473 1 0.6 0.6 0.8 -0.00275423 -4.08701e-15 -2.498e-16
474 1 0.7 0.7 0.8 0.00735375 -1.97758e-16 -2.97885e-16
475 1 0.7 0.6 0.9 0.00735375 -4.2504e-15 -2.60209e-18
476 1 0.6 0.7 0.9 -0.00275423 -1.19696e-16 1.36609e-17
459 1 0.9 0.5 0.8 9.33465e-08 4.00027e-15 -2.67147e-16
460 1 0.8 0.5 0.9 0.0001324 4.06272e-15 1.73472e-17
477 1 0.8 0.6 0.8 0.0001324 -4.19456e-15 -2.68882e-16
478 1 0.9 0.7 0.8 9.33465e-08 -2.94903e-16 -2.74086e-16
479 1 0.9 0.6 0.9 9.33465e-08 -4.21191e-15 3.81639e-17
480 1 0.8 0.7 0.9 0.0001324 -3.98986e-16 2.77556e-17
481 1 0 0.8 0.8 0.000124189 -2.6975e-16 -2.61943e-16
482 1 0.1 0.9 0.8 0.00460943 -3.1225e-17 -2.70617e-16
483 1 0.1 0.8 0.9 0.00460943 -3.46945e-16 -7.71952e-17
484 1 0 0.9 0.9 0.000124189 -6.93889e-18 -3.1225e-17
485 1 0.2 0.8 0.8 -0.00370528 -2.89699e-16 -3.03577e-16
486 1 0.3 0.9 0.8 0.0979042 9.97466e-17 -2.63678e-16
487 1 0.3 0.8 0.9 0.0979042 -2.15106e-16 3.64292e-17
488 1 0.2 0.9 0.9 -0.00370528 1.29345e-16 9.11814e-17
489 1 0.402475 0.8 0.8 -0.212331 -3.20924e-16 -3.59955e-16
490 1 0.5 0.9 0.8 0.108667 6.93889e-17 -2.94903e-16
491 1 0.5 0.8 0.9 0.108667 -2.63678e-16 -5.55112e-17
492 1 0.402475 0.9 0.9 -0.212331 1.39645e-16 1.10155e-16
493 1 0.6 0.8 0.8 -0.00275423 -2.74086e-16 -2.55004e-16
494 1 0.7 0.9 0.8 0.00735375 2.25514e-17 -3.11112e-16
495 1 0.7 0.8 0.9 0.00735375 -2.46927e-16 -3.29597e-17
496 1 0.6 0.9 0.9 -0.00275423 -1.9082e-17 3.1225e-17
497 1 0.8 0.8 0.8 0.0001324 -2.7929e-16 -2.55004e-16
498 1 0.9 0.9 0.8 9.33465e-08 7.63278e-17 -3.1572e-16
499 1 0.9 0.8 0.9 9.33465e-08 -3.05311e-16 -5.89806e-17
500 1 0.8 0.9 0.9 0.0001324 3.81639e-17 -3.29597e-17
