ITEM: TIMESTEP
0
ITEM: NUMBER OF ATOMS
500
ITEM: BOX BOUNDS pp pp pp
0.0000000000000000e+00 1.8075000000000003e+01
0.0000000000000000e+00 1.8075000000000003e+01
0.0000000000000000e+00 1.8075000000000003e+01
id type xs ys zs fx fy fz
1 1 0 0 0 4.08747e-05 -2.65066e-15 -2.9976e-15
2 1 0.1 0.1 0 0.0012727 1.97758e-16 -3.03577e-15
3 1 0.1 0 0.1 0.0012727 -2.98025e-15 3.1225e-16
4 1 0 0.1 0.1 4.08747e-05 2.498e-16 2.91434e-16
5 1 0.2 0 0 -0.00371535 -2.83107e-15 -2.80331e-15
6 1 0.3 0.1 0 0.180247 4.996e-16 -2.17881e-15
7 1 0.3 0 0.1 0.180247 -2.72005e-15 2.22045e-16
8 1 0.2 0.1 0.1 -0.00371535 -2.77556e-16 -7.97973e-17
9 1 0.402766 0 0 -0.382114 -3.10862e-15 -3.01148e-15
12 1 0.402766 0.1 0.1 -0.382114 8.32667e-17 3.1225e-17
10 1 0.5 0.1 0 0.207356 4.996e-16 -3.22659e-15
11 1 0.5 0 0.1 0.207356 -3.19189e-15 5.27356e-16
13 1 0.6 0 0 -0.00446794 -3.2474e-15 -3.16414e-15
16 1 0.6 0.1 0.1 -0.00446794 -2.77556e-17 1.04083e-16
14 1 0.7 0.1 0 0.00133545 3.33067e-16 -2.67147e-15
15 1 0.7 0 0.1 0.00133545 -2.69229e-15 4.51028e-16
17 1 0.8 0 0 4.51991e-05 -2.4529e-15 -2.65586e-15
20 1 0.8 0.1 0.1 4.51991e-05 3.88578e-16 4.92661e-16
18 1 0.9 0.1 0 7.63278e-17 3.67761e-16 -2.9074e-15
19 1 0.9 0 0.1 4.85723e-17 -2.88658e-15 3.46945e-16
21 1 0 0.2 0 4.08747e-05 -1.8735e-16 -3.06699e-15
22 1 0.1 0.3 0 0.0012727 -2.87964e-16 -2.58821e-15
23 1 0.1 0.2 0.1 0.0012727 -5.20417e-18 6.93889e-18
24 1 0 0.3 0.1 4.08747e-05 -2.77556e-16 3.19189e-16
25 1 0.2 0.2 0 -0.00371535 -1.66533e-16 -2.94209e-15
26 1 0.3 0.3 0 0.180247 1.04083e-16 -2.70617e-15
27 1 0.3 0.2 0.1 0.180247 -1.7087e-16 -1.38778e-16
28 1 0.2 0.3 0.1 -0.00371535 1.45717e-16 -1.11022e-16
29 1 0.402766 0.2 0 -0.382114 -1.31839e-16 -2.96985e-15
32 1 0.402766 0.3 0.1 -0.382114 -9.36751e-17 2.77556e-16
30 1 0.5 0.3 0 0.207356 -2.498e-16 -3.36536e-15
31 1 0.5 0.2 0.1 0.207356 -1.89085e-16 0
33 1 0.6 0.2 0 -0.00446794 -1.9082e-17 -2.83107e-15
36 1 0.6 0.3 0.1 -0.00446794 8.50015e-17 1.11022e-16
34 1 0.7 0.3 0 0.00133545 -3.19189e-16 -2.68535e-15
35 1 0.7 0.2 0.1 0.00133545 -2.1684e-16 -2.77556e-17
37 1 0.8 0.2 0 4.51991e-05 -2.77556e-17 -3.18148e-15
40 1 0.8 0.3 0.1 4.51991e-05 -3.17454e-16 4.996e-16
38 1 0.9 0.3 0 6.93889e-17 -3.85109e-16 -3.20577e-15
39 1 0.9 0.2 0.1 -1.38778e-16 -4.16334e-17 4.02456e-16
41 1 0 0.4 0 4.08747e-05 2.8727e-15 -3.16414e-15
42 1 0.1 0.4 0.1 0.0012727 3.02189e-15 8.67362e-17
43 1 0.2 0.4 0 -0.00371535 3.18495e-15 -2.66454e-15
44 1 0.3 0.4 0.1 0.180247 2.66454e-15 -4.16334e-17
45 1 0.402766 0.4 0 -0.382114 3.15026e-15 -3.01148e-15
46 1 0.5 0.4 0.1 0.207356 3.91007e-15 -6.93889e-17
47 1 0.6 0.4 0 -0.00446794 3.18495e-15 -2.69229e-15
48 1 0.7 0.4 0.1 0.00133545 3.13291e-15 2.08167e-17
49 1 0.8 0.4 0 4.51991e-05 3.0323e-15 -2.75821e-15
50 1 0.9 0.4 0.1 -3.05311e-16 3.05311e-15 4.09395e-16
51 1 0 0 0.2 4.08747e-05 -3.0323e-15 -3.19189e-16
52 1 0.1 0.1 0.2 0.0012727 -1.37043e-16 -3.08781e-16
53 1 0.1 0 0.3 0.0012727 -2.73219e-15 -2.87964e-16
54 1 0 0.1 0.3 4.08747e-05 2.63678e-16 0
55 1 0.2 0 0.2 -0.00371535 -2.85882e-15 -1.66533e-16
56 1 0.3 0.1 0.2 0.180247 -2.77556e-17 -2.05565e-16
57 1 0.3 0 0.3 0.180247 -3.17801e-15 -2.77556e-16
58 1 0.2 0.1 0.3 -0.00371535 -1.94289e-16 -1.07553e-16
59 1 0.402766 0 0.2 -0.382114 -2.9976e-15 -2.08167e-16
62 1 0.402766 0.1 0.3 -0.382114 2.498e-16 -1.04083e-17
60 1 0.5 0.1 0.2 0.207356 0 -4.7011e-16
61 1 0.5 0 0.3 0.207356 -3.85803e-15 -4.85723e-17
63 1 0.6 0 0.2 -0.00446794 -2.80331e-15 -1.38778e-17
66 1 0.6 0.1 0.3 -0.00446794 -5.55112e-17 -2.42861e-17
64 1 0.7 0.1 0.2 0.00133545 -2.22045e-16 -3.31332e-16
65 1 0.7 0 0.3 0.00133545 -2.58127e-15 -3.33067e-16
67 1 0.8 0 0.2 4.51991e-05 -3.40353e-15 -3.81639e-17
70 1 0.8 0.1 0.3 4.51991e-05 1.66533e-16 -2.5327e-16
68 1 0.9 0.1 0.2 4.51028e-17 3.67761e-16 -1.94289e-16
69 1 0.9 0 0.3 -1.31839e-16 -3.15026e-15 -4.02456e-16
71 1 0 0.2 0.2 4.08747e-05 -3.81639e-17 -1.38778e-17
72 1 0.1 0.3 0.2 0.0012727 5.20417e-18 -2.96638e-16
73 1 0.1 0.2 0.3 0.0012727 -5.20417e-18 6.245e-17
74 1 0 0.3 0.3 4.08747e-05 -2.22045e-16 -1.8735e-16
75 1 0.2 0.2 0.2 -0.00371535 -3.46945e-17 -6.59195e-17
76 1 0.3 0.3 0.2 0.180247 8.32667e-17 -2.08167e-16
77 1 0.3 0.2 0.3 0.180247 5.20417e-18 -2.86229e-16
78 1 0.2 0.3 0.3 -0.00371535 -1.07553e-16 -1.249e-16
79 1 0.402766 0.2 0.2 -0.382114 -1.56125e-17 -4.51028e-17
82 1 0.402766 0.3 0.3 -0.382114 -1.05818e-16 -7.28584e-17
80 1 0.5 0.3 0.2 0.207356 8.32667e-17 -1.9082e-16
81 1 0.5 0.2 0.3 0.207356 -5.20417e-18 -2.94903e-16
83 1 0.6 0.2 0.2 -0.00446794 -9.02056e-17 -6.245e-17
86 1 0.6 0.3 0.3 -0.00446794 -2.61943e-16 -2.498e-16
84 1 0.7 0.3 0.2 0.00133545 1.94289e-16 -3.1572e-16
85 1 0.7 0.2 0.3 0.00133545 -2.15106e-16 1.8735e-16
87 1 0.8 0.2 0.2 4.51991e-05 -3.29597e-17 -3.66027e-16
90 1 0.8 0.3 0.3 4.51991e-05 1.9082e-17 -1.35308e-16
88 1 0.9 0.3 0.2 7.63278e-17 -3.1572e-16 -5.55112e-17
89 1 0.9 0.2 0.3 4.16334e-17 -2.77556e-17 -3.53884e-16
91 1 0 0.4 0.2 4.08747e-05 3.16414e-15 -1.38778e-17
92 1 0.1 0.4 0.3 0.0012727 3.44516e-15 -4.33681e-17
93 1 0.2 0.4 0.2 -0.00371535 3.03924e-15 -2.35922e-16
94 1 0.3 0.4 0.3 0.180247 2.9525e-15 -1.38778e-16
95 1 0.402766 0.4 0.2 -0.382114 3.40006e-15 -1.73472e-16
96 1 0.5 0.4 0.3 0.207356 4.01762e-15 -6.93889e-18
97 1 0.6 0.4 0.2 -0.00446794 3.33067e-15 -1.52656e-16
98 1 0.7 0.4 0.3 0.00133545 3.45557e-15 -9.71445e-17
99 1 0.8 0.4 0.2 4.51991e-05 3.02362e-15 -3.46945e-18
100 1 0.9 0.4 0.3 5.55112e-17 3.17801e-15 -4.85723e-17
101 1 0 0 0.4 4.08747e-05 -2.96985e-15 3.18495e-15
102 1 0.1 0.1 0.4 0.0012727 5.37764e-17 3.57353e-15
103 1 0.2 0 0.4 -0.00371535 -2.83107e-15 3.11556e-15
104 1 0.3 0.1 0.4 0.180247 5.55112e-17 2.73045e-15
105 1 0.402766 0 0.4 -0.382114 -3.30291e-15 3.16414e-15
106 1 0.5 0.1 0.4 0.207356 -1.66533e-16 4.23966e-15
107 1 0.6 0 0.4 -0.00446794 -2.80331e-15 3.18495e-15
108 1 0.7 0.1 0.4 0.00133545 -5.55112e-17 3.47639e-15
109 1 0.8 0 0.4 4.51991e-05 -2.78597e-15 2.97679e-15
110 1 0.9 0.1 0.4 -1.17961e-16 1.56125e-16 3.12944e-15
111 1 0 0.2 0.4 4.08747e-05 -1.38778e-17 3.12944e-15
112 1 0.1 0.3 0.4 0.0012727 -2.42861e-16 3.65333e-15
113 1 0.2 0.2 0.4 -0.00371535 -4.16334e-17 3.29944e-15
114 1 0.3 0.3 0.4 0.180247 -7.63278e-17 2.67841e-15
115 1 0.402766 0.2 0.4 -0.382114 -2.08167e-17 3.35669e-15
116 1 0.5 0.3 0.4 0.207356 1.11022e-16 4.18762e-15
117 1 0.6 0.2 0.4 -0.00446794 -2.42861e-17 3.47812e-15
118 1 0.7 0.3 0.4 0.00133545 -1.11022e-16 3.7817e-15
119 1 0.8 0.2 0.4 4.51991e-05 -6.93889e-18 3.62904e-15
120 1 0.9 0.3 0.4 7.63278e-17 -1.9082e-16 3.05311e-15
121 1 0 0.4 0.4 4.08747e-05 3.35842e-15 3.3723e-15
122 1 0.2 0.4 0.4 -0.00371535 3.53884e-15 3.31679e-15
123 1 0.402766 0.4 0.4 -0.382114 3.44863e-15 3.30985e-15
124 1 0.6 0.4 0.4 -0.00446794 3.15026e-15 3.17801e-15
125 1 0.8 0.4 0.4 4.51991e-05 3.49373e-15 3.50414e-15
126 1 0.1 0 0.5 0.0012727 -2.98025e-15 -6.01949e-15
127 1 0 0.1 0.5 4.08747e-05 1.66533e-16 -5.81479e-15
151 1 0 0 0.6 4.08747e-05 -2.77556e-15 -2.08167e-17
152 1 0.1 0.1 0.6 0.0012727 2.8276e-16 6.59195e-17
128 1 0.3 0 0.5 0.180247 -2.69229e-15 -5.46785e-15
129 1 0.2 0.1 0.5 -0.00371535 1.66533e-16 -5.60663e-15
155 1 0.2 0 0.6 -0.00371535 -3.05311e-15 3.46945e-17
156 1 0.3 0.1 0.6 0.180247 5.55112e-17 -2.08167e-17
131 1 0.402766 0.1 0.5 -0.382114 2.77556e-17 -6.07847e-15
159 1 0.402766 0 0.6 -0.382114 -3.16414e-15 6.93889e-18
130 1 0.5 0 0.5 0.207356 -3.71925e-15 -5.75928e-15
133 1 0.6 0.1 0.5 -0.00446794 2.498e-16 -4.94396e-15
160 1 0.5 0.1 0.6 0.207356 3.05311e-16 4.16334e-17
163 1 0.6 0 0.6 -0.00446794 -3.10862e-15 -1.66533e-16
132 1 0.7 0 0.5 0.00133545 -3.10862e-15 -5.30131e-15
135 1 0.8 0.1 0.5 4.51991e-05 2.22045e-16 -5.79051e-15
164 1 0.7 0.1 0.6 0.00133545 1.66533e-16 -8.32667e-17
167 1 0.8 0 0.6 4.51991e-05 -2.498e-15 -2.34188e-16
134 1 0.9 0 0.5 -4.16334e-17 -2.81719e-15 -5.80785e-15
168 1 0.9 0.1 0.6 1.38778e-17 -2.498e-16 0
136 1 0.1 0.2 0.5 0.0012727 1.73472e-18 -5.99867e-15
137 1 0 0.3 0.5 4.08747e-05 -9.71445e-17 -6.1201e-15
171 1 0 0.2 0.6 4.08747e-05 -1.56125e-16 -6.93889e-18
172 1 0.1 0.3 0.6 0.0012727 -2.23779e-16 -1.73472e-17
138 1 0.3 0.2 0.5 0.180247 -1.82146e-17 -5.64826e-15
139 1 0.2 0.3 0.5 -0.00371535 -1.59595e-16 -5.46785e-15
175 1 0.2 0.2 0.6 -0.00371535 -5.20417e-18 -5.55112e-17
176 1 0.3 0.3 0.6 0.180247 5.9848e-17 8.32667e-17
141 1 0.402766 0.3 0.5 -0.382114 -2.77556e-17 -6.075e-15
179 1 0.402766 0.2 0.6 -0.382114 -2.01228e-16 5.55112e-17
140 1 0.5 0.2 0.5 0.207356 -1.56125e-17 -5.93969e-15
143 1 0.6 0.3 0.5 -0.00446794 -2.35922e-16 -4.91274e-15
180 1 0.5 0.3 0.6 0.207356 -1.9082e-17 -3.60822e-16
183 1 0.6 0.2 0.6 -0.00446794 -4.16334e-17 -5.82867e-16
142 1 0.7 0.2 0.5 0.00133545 6.93889e-18 -5.30131e-15
145 1 0.8 0.3 0.5 4.51991e-05 -2.28983e-16 -5.81479e-15
184 1 0.7 0.3 0.6 0.00133545 -2.1684e-16 -2.498e-16
187 1 0.8 0.2 0.6 4.51991e-05 -1.5439e-16 -4.33681e-16
144 1 0.9 0.2 0.5 -1.94289e-16 -5.55112e-17 -5.62744e-15
188 1 0.9 0.3 0.6 2.42861e-17 1.04083e-16 -3.60822e-16
146 1 0.1 0.4 0.5 0.0012727 3.11209e-15 -5.96224e-15
191 1 0 0.4 0.6 4.08747e-05 3.69149e-15 -1.38778e-17
147 1 0.3 0.4 0.5 0.180247 2.97332e-15 -5.28744e-15
193 1 0.2 0.4 0.6 -0.00371535 2.84495e-15 -4.85723e-17
195 1 0.402766 0.4 0.6 -0.382114 2.98025e-15 1.94289e-16
148 1 0.5 0.4 0.5 0.207356 3.37924e-15 -5.84255e-15
197 1 0.6 0.4 0.6 -0.00446794 3.01842e-15 -2.498e-16
149 1 0.7 0.4 0.5 0.00133545 3.19883e-15 -5.06539e-15
199 1 0.8 0.4 0.6 4.51991e-05 3.50241e-15 -3.36536e-16
150 1 0.9 0.4 0.5 -6.93889e-17 3.28904e-15 -5.81479e-15
153 1 0.1 0 0.7 0.0012727 -3.11556e-15 5.75755e-15
154 1 0 0.1 0.7 4.08747e-05 5.55112e-17 5.91194e-15
201 1 0 0 0.8 4.08747e-05 -2.44249e-15 -9.71445e-17
202 1 0.1 0.1 0.8 0.0012727 1.07553e-16 2.77556e-17
157 1 0.3 0 0.7 0.180247 -2.8727e-15 5.57887e-15
158 1 0.2 0.1 0.7 -0.00371535 1.38778e-16 5.57714e-15
205 1 0.2 0 0.8 -0.00371535 -3.08087e-15 -1.38778e-17
206 1 0.3 0.1 0.8 0.180247 1.66533e-16 1.2837e-16
162 1 0.402766 0.1 0.7 -0.382114 1.11022e-16 5.97786e-15
209 1 0.402766 0 0.8 -0.382114 -3.13638e-15 1.59595e-16
161 1 0.5 0 0.7 0.207356 -3.88578e-15 5.84255e-15
166 1 0.6 0.1 0.7 -0.00446794 -4.71845e-16 4.64039e-15
210 1 0.5 0.1 0.8 0.207356 2.77556e-16 -1.21431e-16
213 1 0.6 0 0.8 -0.00446794 -3.16414e-15 -2.84495e-16
165 1 0.7 0 0.7 0.00133545 -3.08087e-15 5.2458e-15
170 1 0.8 0.1 0.7 4.51991e-05 -2.94903e-17 5.53377e-15
214 1 0.7 0.1 0.8 0.00133545 8.32667e-17 -2.08167e-16
217 1 0.8 0 0.8 4.51991e-05 -2.70096e-15 1.5786e-16
169 1 0.9 0 0.7 1.11022e-16 -2.19269e-15 5.77316e-15
218 1 0.9 0.1 0.8 1.80411e-16 0 -1.94289e-16
173 1 0.1 0.2 0.7 0.0012727 3.46945e-18 5.10703e-15
174 1 0 0.3 0.7 4.08747e-05 -8.32667e-17 6.05765e-15
221 1 0 0.2 0.8 4.08747e-05 -6.245e-17 -3.46945e-17
222 1 0.1 0.3 0.8 0.0012727 -1.96024e-16 -2.2031e-16
177 1 0.3 0.2 0.7 0.180247 1.63931e-16 5.63785e-15
178 1 0.2 0.3 0.7 -0.00371535 -9.02056e-17 5.69336e-15
225 1 0.2 0.2 0.8 -0.00371535 1.73472e-16 2.46331e-16
226 1 0.3 0.3 0.8 0.180247 -7.54605e-17 -2.56739e-16
182 1 0.402766 0.3 0.7 -0.382114 -1.38778e-17 6.00561e-15
229 1 0.402766 0.2 0.8 -0.382114 -1.73472e-17 -2.08167e-17
181 1 0.5 0.2 0.7 0.207356 -2.02963e-16 6.04725e-15
186 1 0.6 0.3 0.7 -0.00446794 -6.93889e-17 4.35416e-15
230 1 0.5 0.3 0.8 0.207356 -1.35308e-16 -1.56125e-16
233 1 0.6 0.2 0.8 -0.00446794 8.67362e-18 -1.52656e-16
185 1 0.7 0.2 0.7 0.00133545 -1.40513e-16 4.88151e-15
190 1 0.8 0.3 0.7 4.51991e-05 -1.94289e-16 5.88765e-15
234 1 0.7 0.3 0.8 0.00133545 -2.04697e-16 -3.46945e-17
237 1 0.8 0.2 0.8 4.51991e-05 -4.51028e-17 -9.02056e-17
189 1 0.9 0.2 0.7 1.66533e-16 -5.55112e-17 5.71071e-15
238 1 0.9 0.3 0.8 1.8735e-16 -1.04083e-17 -1.17961e-16
192 1 0.1 0.4 0.7 0.0012727 3.13811e-15 5.75061e-15
241 1 0 0.4 0.8 4.08747e-05 3.31679e-15 -2.01228e-16
194 1 0.3 0.4 0.7 0.180247 2.81719e-15 5.63438e-15
243 1 0.2 0.4 0.8 -0.00371535 2.94903e-15 -2.15106e-16
245 1 0.402766 0.4 0.8 -0.382114 3.18495e-15 -1.31839e-16
196 1 0.5 0.4 0.7 0.207356 3.83721e-15 5.84255e-15
247 1 0.6 0.4 0.8 -0.00446794 3.21618e-15 -2.77556e-16
198 1 0.7 0.4 0.7 0.00133545 3.55271e-15 4.91968e-15
249 1 0.8 0.4 0.8 4.51991e-05 3.03577e-15 -1.11022e-16
200 1 0.9 0.4 0.7 3.46945e-16 2.83107e-15 5.73153e-15
203 1 0.1 0 0.9 0.0012727 -2.64198e-15 4.85723e-17
204 1 0 0.1 0.9 4.08747e-05 1.66533e-16 5.55112e-17
207 1 0.3 0 0.9 0.180247 -2.66454e-15 -1.66533e-16
208 1 0.2 0.1 0.9 -0.00371535 1.66533e-16 2.32453e-16
212 1 0.402766 0.1 0.9 -0.382114 -2.77556e-17 -3.08781e-16
211 1 0.5 0 0.9 0.207356 -3.80251e-15 -1.52656e-16
216 1 0.6 0.1 0.9 -0.00446794 5.55112e-17 2.77556e-17
215 1 0.7 0 0.9 0.00133545 -2.77556e-15 1.8735e-16
220 1 0.8 0.1 0.9 4.51991e-05 2.77556e-17 3.747e-16
219 1 0.9 0 0.9 -2.77556e-17 -3.06699e-15 -1.80411e-16
223 1 0.1 0.2 0.9 0.0012727 1.04083e-17 -1.249e-16
224 1 0 0.3 0.9 4.08747e-05 -3.05311e-16 -1.52656e-16
227 1 0.3 0.2 0.9 0.180247 -3.46945e-18 2.60209e-18
228 1 0.2 0.3 0.9 -0.00371535 0 -1.63064e-16
232 1 0.402766 0.3 0.9 -0.382114 1.249e-16 -3.46945e-16
231 1 0.5 0.2 0.9 0.207356 -1.04083e-17 -1.23165e-16
236 1 0.6 0.3 0.9 -0.00446794 -8.32667e-17 1.17961e-16
235 1 0.7 0.2 0.9 0.00133545 -1.38778e-17 4.68375e-17
240 1 0.8 0.3 0.9 4.51991e-05 -1.52656e-16 3.36536e-16
239 1 0.9 0.2 0.9 5.55112e-17 -5.55112e-17 -2.77556e-17
242 1 0.1 0.4 0.9 0.0012727 3.55618e-15 3.81639e-17
244 1 0.3 0.4 0.9 0.180247 2.33841e-15 -1.80411e-16
246 1 0.5 0.4 0.9 0.207356 3.67761e-15 1.80411e-16
248 1 0.7 0.4 0.9 0.00133545 3.35149e-15 2.77556e-17
250 1 0.9 0.4 0.9 -5.55112e-17 2.67841e-15 -2.77556e-16
251 1 0.1 0.5 0 0.0012727 -5.89112e-15 -3.01495e-15
252 1 0 0.5 0.1 4.08747e-05 -5.63438e-15 3.05311e-16
261 1 0 0.6 0 4.08747e-05 4.16334e-17 -2.69923e-15
263 1 0.1 0.6 0.1 0.0012727 1.04083e-17 3.72966e-16
253 1 0.3 0.5 0 0.180247 -5.4956e-15 -2.21351e-15
254 1 0.2 0.5 0.1 -0.00371535 -5.55112e-15 -1.38778e-17
265 1 0.2 0.6 0 -0.00371535 2.77556e-17 -3.06005e-15
267 1 0.3 0.6 0.1 0.180247 1.11022e-16 1.83881e-16
256 1 0.402766 0.5 0.1 -0.382114 -6.05072e-15 -4.16334e-17
269 1 0.402766 0.6 0 -0.382114 0 -2.86923e-15
255 1 0.5 0.5 0 0.207356 -5.77316e-15 -3.4972e-15
258 1 0.6 0.5 0.1 -0.00446794 -4.69069e-15 1.38778e-17
271 1 0.5 0.6 0.1 0.207356 2.77556e-17 4.47559e-16
273 1 0.6 0.6 0 -0.00446794 -1.38778e-16 -2.76168e-15
257 1 0.7 0.5 0 0.00133545 -5.10703e-15 -2.99066e-15
260 1 0.8 0.5 0.1 4.51991e-05 -5.64132e-15 1.04083e-17
275 1 0.7 0.6 0.1 0.00133545 -1.11022e-16 -1.38778e-17
277 1 0.8 0.6 0 4.51991e-05 -8.32667e-17 -2.98372e-15
259 1 0.9 0.5 0 -1.94289e-16 -5.66214e-15 -2.93515e-15
279 1 0.9 0.6 0.1 1.38778e-17 -3.46945e-17 -1.45717e-16
262 1 0.1 0.7 0 0.0012727 5.75581e-15 -3.06005e-15
264 1 0 0.7 0.1 4.08747e-05 5.93275e-15 2.77556e-17
281 1 0 0.8 0 4.08747e-05 -2.35922e-16 -2.44943e-15
283 1 0.1 0.8 0.1 0.0012727 1.07553e-16 2.18575e-16
266 1 0.3 0.7 0 0.180247 5.53984e-15 -2.3731e-15
268 1 0.2 0.7 0.1 -0.00371535 5.59795e-15 2.77556e-16
285 1 0.2 0.8 0 -0.00371535 -2.77556e-17 -3.07046e-15
287 1 0.3 0.8 0.1 0.180247 -3.11383e-16 4.44089e-16
272 1 0.402766 0.7 0.1 -0.382114 6.13572e-15 -2.77556e-16
289 1 0.402766 0.8 0 -0.382114 2.15106e-16 -2.98025e-15
270 1 0.5 0.7 0 0.207356 5.85816e-15 -3.46945e-15
276 1 0.6 0.7 0.1 -0.00446794 4.47038e-15 -5.55112e-17
291 1 0.5 0.8 0.1 0.207356 -4.7358e-16 4.71845e-16
293 1 0.6 0.8 0 -0.00446794 -2.91434e-16 -3.1572e-15
274 1 0.7 0.7 0 0.00133545 5.23193e-15 -2.88658e-15
280 1 0.8 0.7 0.1 4.51991e-05 5.59101e-15 -1.07553e-16
295 1 0.7 0.8 0.1 0.00133545 -1.94289e-16 1.11022e-16
297 1 0.8 0.8 0 4.51991e-05 -5.55112e-17 -2.5327e-15
278 1 0.9 0.7 0 -5.55112e-17 5.53724e-15 -2.09555e-15
299 1 0.9 0.8 0.1 1.45717e-16 -2.46331e-16 9.02056e-17
282 1 0.1 0.9 0 0.0012727 -4.68375e-17 -2.88658e-15
284 1 0 0.9 0.1 4.08747e-05 -2.77556e-17 4.16334e-16
286 1 0.3 0.9 0 0.180247 -4.51028e-17 -2.69229e-15
288 1 0.2 0.9 0.1 -0.00371535 6.59195e-17 5.55112e-16
292 1 0.402766 0.9 0.1 -0.382114 -3.36536e-16 6.245e-17
290 1 0.5 0.9 0 0.207356 -4.16334e-17 -4.01068e-15
296 1 0.6 0.9 0.1 -0.00446794 1.38778e-17 1.11022e-16
294 1 0.7 0.9 0 0.00133545 9.02056e-17 -2.58127e-15
300 1 0.8 0.9 0.1 4.51991e-05 5.20417e-17 3.85109e-16
298 1 0.9 0.9 0 -1.38778e-17 4.16334e-17 -2.67841e-15
301 1 0.1 0.5 0.2 0.0012727 -5.46785e-15 2.08167e-17
302 1 0 0.5 0.3 4.08747e-05 -6.13398e-15 -6.93889e-18
311 1 0 0.6 0.2 4.08747e-05 0 -1.73472e-16
313 1 0.1 0.6 0.3 0.0012727 -4.51028e-17 -2.1684e-16
303 1 0.3 0.5 0.2 0.180247 -5.31519e-15 -2.77556e-17
304 1 0.2 0.5 0.3 -0.00371535 -5.35683e-15 4.85723e-17
315 1 0.2 0.6 0.2 -0.00371535 -2.77556e-17 -2.42861e-17
317 1 0.3 0.6 0.3 0.180247 -1.11022e-16 1.04083e-16
306 1 0.402766 0.5 0.3 -0.382114 -6.02296e-15 -1.31839e-16
319 1 0.402766 0.6 0.2 -0.382114 -8.32667e-17 -1.56125e-16
305 1 0.5 0.5 0.2 0.207356 -5.9952e-15 -4.16334e-17
308 1 0.6 0.5 0.3 -0.00446794 -4.82947e-15 -1.38778e-16
321 1 0.5 0.6 0.3 0.207356 -1.38778e-16 -5.20417e-17
323 1 0.6 0.6 0.2 -0.00446794 -8.32667e-17 -2.42861e-17
307 1 0.7 0.5 0.2 0.00133545 -5.05151e-15 0
310 1 0.8 0.5 0.3 4.51991e-05 -5.61357e-15 9.36751e-17
325 1 0.7 0.6 0.3 0.00133545 -1.11022e-16 -2.63678e-16
327 1 0.8 0.6 0.2 4.51991e-05 -3.05311e-16 -1.49186e-16
309 1 0.9 0.5 0.2 -2.35922e-16 -5.66214e-15 -6.93889e-17
329 1 0.9 0.6 0.3 -1.42247e-16 -4.33681e-16 9.71445e-17
312 1 0.1 0.7 0.2 0.0012727 4.90927e-15 -1.33574e-16
314 1 0 0.7 0.3 4.08747e-05 6.00908e-15 -2.77556e-16
331 1 0 0.8 0.2 4.08747e-05 -1.94289e-16 -1.38778e-16
333 1 0.1 0.8 0.3 0.0012727 2.30718e-16 3.81639e-17
316 1 0.3 0.7 0.2 0.180247 5.41147e-15 -3.1225e-17
318 1 0.2 0.7 0.3 -0.00371535 5.41928e-15 2.28983e-16
335 1 0.2 0.8 0.2 -0.00371535 5.75928e-16 -2.35922e-16
337 1 0.3 0.8 0.3 0.180247 -2.70617e-16 -2.58474e-16
322 1 0.402766 0.7 0.3 -0.382114 5.94837e-15 -3.26128e-16
339 1 0.402766 0.8 0.2 -0.382114 2.08167e-17 -1.38778e-17
320 1 0.5 0.7 0.2 0.207356 6.02296e-15 -1.45717e-16
326 1 0.6 0.7 0.3 -0.00446794 4.54671e-15 8.67362e-17
341 1 0.5 0.8 0.3 0.207356 -1.16226e-16 -1.97758e-16
343 1 0.6 0.8 0.2 -0.00446794 -5.06539e-16 -1.70003e-16
324 1 0.7 0.7 0.2 0.00133545 5.05672e-15 -1.70003e-16
330 1 0.8 0.7 0.3 4.51991e-05 5.84775e-15 -1.26635e-16
345 1 0.7 0.8 0.3 0.00133545 -2.48065e-16 -4.16334e-17
347 1 0.8 0.8 0.2 4.51991e-05 4.16334e-17 -1.8735e-16
328 1 0.9 0.7 0.2 1.11022e-16 5.7454e-15 -4.16334e-17
349 1 0.9 0.8 0.3 -3.46945e-18 -9.71445e-17 -2.08167e-16
332 1 0.1 0.9 0.2 0.0012727 -4.85723e-17 -1.04083e-17
334 1 0 0.9 0.3 4.08747e-05 -2.77556e-17 -3.40006e-16
336 1 0.3 0.9 0.2 0.180247 9.71445e-17 -7.63278e-17
338 1 0.2 0.9 0.3 -0.00371535 -6.59195e-17 -4.16334e-16
342 1 0.402766 0.9 0.3 -0.382114 -3.36536e-16 4.85723e-17
340 1 0.5 0.9 0.2 0.207356 -1.249e-16 -9.02056e-17
346 1 0.6 0.9 0.3 -0.00446794 9.71445e-17 -6.245e-17
344 1 0.7 0.9 0.2 0.00133545 1.04083e-16 -1.94289e-16
350 1 0.8 0.9 0.3 4.51991e-05 2.94903e-16 -4.51028e-17
348 1 0.9 0.9 0.2 1.38778e-17 5.55112e-17 -2.15106e-16
351 1 0.1 0.5 0.4 0.0012727 -6.03857e-15 3.18148e-15
356 1 0 0.6 0.4 4.08747e-05 0 3.67761e-15
352 1 0.3 0.5 0.4 0.180247 -5.28744e-15 2.47372e-15
358 1 0.2 0.6 0.4 -0.00371535 2.77556e-17 2.8276e-15
360 1 0.402766 0.6 0.4 -0.382114 2.22045e-16 3.50761e-15
353 1 0.5 0.5 0.4 0.207356 -5.93969e-15 3.2821e-15
362 1 0.6 0.6 0.4 -0.00446794 8.32667e-17 2.98025e-15
354 1 0.7 0.5 0.4 0.00133545 -5.21805e-15 3.20577e-15
364 1 0.8 0.6 0.4 4.51991e-05 -1.38778e-16 3.46945e-15
355 1 0.9 0.5 0.4 -1.11022e-16 -5.85643e-15 2.70617e-15
357 1 0.1 0.7 0.4 0.0012727 5.5702e-15 3.21618e-15
366 1 0 0.8 0.4 4.08747e-05 -3.60822e-16 3.48332e-15
359 1 0.3 0.7 0.4 0.180247 5.41234e-15 2.47719e-15
368 1 0.2 0.8 0.4 -0.00371535 -3.67761e-16 2.82413e-15
370 1 0.402766 0.8 0.4 -0.382114 -1.17961e-16 3.14332e-15
361 1 0.5 0.7 0.4 0.207356 5.67948e-15 3.57873e-15
372 1 0.6 0.8 0.4 -0.00446794 -2.42861e-16 3.03924e-15
363 1 0.7 0.7 0.4 0.00133545 5.12784e-15 3.38965e-15
374 1 0.8 0.8 0.4 4.51991e-05 -4.16334e-16 2.8727e-15
365 1 0.9 0.7 0.4 5.55112e-17 5.75928e-15 3.28904e-15
367 1 0.1 0.9 0.4 0.0012727 2.63678e-16 3.58047e-15
369 1 0.3 0.9 0.4 0.180247 -8.32667e-17 2.26902e-15
371 1 0.5 0.9 0.4 0.207356 1.94289e-16 3.6568e-15
373 1 0.7 0.9 0.4 0.00133545 2.42861e-16 3.47639e-15
375 1 0.9 0.9 0.4 -8.32667e-17 6.93889e-17 2.4078e-15
376 1 0 0.5 0.5 4.08747e-05 -5.48867e-15 -5.45397e-15
381 1 0.1 0.6 0.5 0.0012727 -3.98986e-17 -4.67855e-15
401 1 0.1 0.5 0.6 0.0012727 -4.67855e-15 -1.42247e-16
411 1 0 0.6 0.6 4.08747e-05 -1.38778e-17 -1.45717e-16
377 1 0.2 0.5 0.5 -0.00371535 -5.27356e-15 -5.23193e-15
383 1 0.3 0.6 0.5 0.180247 1.94289e-16 -4.43742e-15
403 1 0.3 0.5 0.6 0.180247 -4.4964e-15 1.8735e-16
415 1 0.2 0.6 0.6 -0.00371535 2.77556e-17 -1.04083e-16
378 1 0.402766 0.5 0.5 -0.382114 -5.66214e-15 -5.51642e-15
419 1 0.402766 0.6 0.6 -0.382114 -5.55112e-17 -2.25514e-16
379 1 0.6 0.5 0.5 -0.00446794 -3.94129e-15 -3.92741e-15
385 1 0.5 0.6 0.5 0.207356 0 -4.60049e-15
405 1 0.5 0.5 0.6 0.207356 -4.63518e-15 1.38778e-17
423 1 0.6 0.6 0.6 -0.00446794 5.55112e-17 -6.93889e-18
380 1 0.8 0.5 0.5 4.51991e-05 -5.26142e-15 -5.28917e-15
387 1 0.7 0.6 0.5 0.00133545 5.55112e-17 -4.44436e-15
407 1 0.7 0.5 0.6 0.00133545 -4.41314e-15 -9.71445e-17
427 1 0.8 0.6 0.6 4.51991e-05 -2.22045e-16 -4.12864e-16
389 1 0.9 0.6 0.5 6.93889e-17 -6.93889e-18 -4.30211e-15
409 1 0.9 0.5 0.6 2.08167e-17 -4.55191e-15 -1.249e-16
382 1 0 0.7 0.5 4.08747e-05 5.24927e-15 -5.50254e-15
391 1 0.1 0.8 0.5 0.0012727 -4.16334e-17 -5.57714e-15
412 1 0.1 0.7 0.6 0.0012727 4.30385e-15 -3.46945e-18
431 1 0 0.8 0.6 4.08747e-05 -2.91434e-16 -1.17961e-16
384 1 0.2 0.7 0.5 -0.00371535 5.26315e-15 -4.85723e-15
393 1 0.3 0.8 0.5 0.180247 -1.38778e-16 -5.55805e-15
416 1 0.3 0.7 0.6 0.180247 4.22318e-15 -1.94289e-16
435 1 0.2 0.8 0.6 -0.00371535 1.45717e-16 -3.60822e-16
386 1 0.402766 0.7 0.5 -0.382114 5.74193e-15 -5.68989e-15
439 1 0.402766 0.8 0.6 -0.382114 -8.67362e-18 -2.77556e-16
388 1 0.6 0.7 0.5 -0.00446794 3.94997e-15 -3.83027e-15
395 1 0.5 0.8 0.5 0.207356 -4.85723e-17 -5.34989e-15
420 1 0.5 0.7 0.6 0.207356 4.71151e-15 -1.38778e-16
443 1 0.6 0.8 0.6 -0.00446794 4.33681e-17 -3.33067e-16
390 1 0.8 0.7 0.5 4.51991e-05 5.09835e-15 -5.32387e-15
397 1 0.7 0.8 0.5 0.00133545 -2.84495e-16 -5.3603e-15
424 1 0.7 0.7 0.6 0.00133545 3.83374e-15 -4.996e-16
447 1 0.8 0.8 0.6 4.51991e-05 -3.92048e-16 1.38778e-16
399 1 0.9 0.8 0.5 8.32667e-17 -4.92661e-16 -6.02296e-15
428 1 0.9 0.7 0.6 1.38778e-17 4.60743e-15 -1.38778e-17
392 1 0 0.9 0.5 4.08747e-05 -6.93889e-17 -5.94663e-15
432 1 0.1 0.9 0.6 0.0012727 2.77556e-17 8.67362e-18
394 1 0.2 0.9 0.5 -0.00371535 6.93889e-17 -5.67602e-15
436 1 0.3 0.9 0.6 0.180247 -3.36536e-16 5.55112e-17
396 1 0.402766 0.9 0.5 -0.382114 7.63278e-17 -5.93969e-15
398 1 0.6 0.9 0.5 -0.00446794 2.42861e-16 -4.52416e-15
440 1 0.5 0.9 0.6 0.207356 1.42247e-16 -1.66533e-16
400 1 0.8 0.9 0.5 4.51991e-05 1.04083e-16 -6.05245e-15
444 1 0.7 0.9 0.6 0.00133545 1.45717e-16 -1.80411e-16
448 1 0.9 0.9 0.6 6.93889e-17 -4.16334e-17 0
402 1 0 0.5 0.7 4.08747e-05 -5.43315e-15 5.23193e-15
413 1 0.1 0.6 0.7 0.0012727 -4.68375e-17 4.35936e-15
451 1 0.1 0.5 0.8 0.0012727 -5.67775e-15 1.07553e-16
461 1 0 0.6 0.8 4.08747e-05 -1.80411e-16 -3.26128e-16
404 1 0.2 0.5 0.7 -0.00371535 -5.02376e-15 5.1556e-15
417 1 0.3 0.6 0.7 0.180247 -1.66533e-16 4.16941e-15
453 1 0.3 0.5 0.8 0.180247 -5.6205e-15 -1.94289e-16
465 1 0.2 0.6 0.8 -0.00371535 -2.77556e-16 1.52656e-16
406 1 0.402766 0.5 0.7 -0.382114 -5.57887e-15 5.6205e-15
469 1 0.402766 0.6 0.8 -0.382114 -1.66533e-16 -1.45717e-16
408 1 0.6 0.5 0.7 -0.00446794 -4.05231e-15 3.94129e-15
421 1 0.5 0.6 0.7 0.207356 -1.11022e-16 4.3715e-15
455 1 0.5 0.5 0.8 0.207356 -5.4956e-15 3.46945e-17
473 1 0.6 0.6 0.8 -0.00446794 -1.11022e-16 1.73472e-16
410 1 0.8 0.5 0.7 4.51991e-05 -5.12958e-15 5.04111e-15
425 1 0.7 0.6 0.7 0.00133545 -4.44089e-16 4.03844e-15
457 1 0.7 0.5 0.8 0.00133545 -5.13478e-15 -1.17961e-16
477 1 0.8 0.6 0.8 4.51991e-05 -1.38778e-16 -2.67147e-16
429 1 0.9 0.6 0.7 1.17961e-16 -1.49186e-16 4.75314e-15
459 1 0.9 0.5 0.8 -1.45717e-16 -5.92582e-15 -2.77556e-17
414 1 0 0.7 0.7 4.08747e-05 5.22499e-15 5.22499e-15
433 1 0.1 0.8 0.7 0.0012727 -2.42861e-17 5.73847e-15
462 1 0.1 0.7 0.8 0.0012727 5.91194e-15 -2.77556e-17
481 1 0 0.8 0.8 4.08747e-05 -4.44089e-16 -4.78784e-16
418 1 0.2 0.7 0.7 -0.00371535 5.15386e-15 5.1556e-15
437 1 0.3 0.8 0.7 0.180247 -1.38778e-16 5.70377e-15
466 1 0.3 0.7 0.8 0.180247 5.72545e-15 -1.99493e-16
485 1 0.2 0.8 0.8 -0.00371535 4.51028e-17 9.02056e-17
422 1 0.402766 0.7 0.7 -0.382114 5.60663e-15 5.39152e-15
489 1 0.402766 0.8 0.8 -0.382114 6.59195e-17 2.77556e-17
426 1 0.6 0.7 0.7 -0.00446794 3.9118e-15 3.77129e-15
441 1 0.5 0.8 0.7 0.207356 1.52656e-16 5.51642e-15
470 1 0.5 0.7 0.8 0.207356 5.71244e-15 3.08781e-16
493 1 0.6 0.8 0.8 -0.00446794 3.76435e-16 5.51642e-16
430 1 0.8 0.7 0.7 4.51991e-05 5.1608e-15 4.76875e-15
445 1 0.7 0.8 0.7 0.00133545 7.63278e-17 4.9058e-15
474 1 0.7 0.7 0.8 0.00133545 4.89539e-15 3.747e-16
497 1 0.8 0.8 0.8 4.51991e-05 -3.48679e-16 -2.32453e-16
449 1 0.9 0.8 0.7 2.42861e-16 -3.1225e-16 5.61357e-15
478 1 0.9 0.7 0.8 1.80411e-16 5.66214e-15 -3.46945e-16
434 1 0 0.9 0.7 4.08747e-05 8.32667e-17 5.68295e-15
482 1 0.1 0.9 0.8 0.0012727 2.42861e-17 -4.44089e-16
438 1 0.2 0.9 0.7 -0.00371535 9.02056e-17 5.62744e-15
486 1 0.3 0.9 0.8 0.180247 -1.73472e-16 -1.73472e-16
442 1 0.402766 0.9 0.7 -0.382114 -2.08167e-17 5.91888e-15
446 1 0.6 0.9 0.7 -0.00446794 2.28983e-16 4.61436e-15
490 1 0.5 0.9 0.8 0.207356 1.73472e-16 8.32667e-17
450 1 0.8 0.9 0.7 4.51991e-05 2.63678e-16 5.64479e-15
494 1 0.7 0.9 0.8 0.00133545 1.56125e-16 -1.59595e-16
498 1 0.9 0.9 0.8 -1.249e-16 2.77556e-16 2.35922e-16
452 1 0 0.5 0.9 4.08747e-05 -5.93969e-15 -2.01228e-16
463 1 0.1 0.6 0.9 0.0012727 -1.38778e-16 1.76942e-16
454 1 0.2 0.5 0.9 -0.00371535 -5.88418e-15 -1.52656e-16
467 1 0.3 0.6 0.9 0.180247 2.77556e-17 -3.33067e-16
456 1 0.402766 0.5 0.9 -0.382114 -6.27276e-15 -1.38778e-17
458 1 0.6 0.5 0.9 -0.00446794 -4.57967e-15 -2.77556e-17
471 1 0.5 0.6 0.9 0.207356 -3.05311e-16 1.63064e-16
460 1 0.8 0.5 0.9 4.51991e-05 -5.62224e-15 1.73472e-16
475 1 0.7 0.6 0.9 0.00133545 -1.38778e-16 2.15106e-16
479 1 0.9 0.6 0.9 -2.28983e-16 -3.64292e-16 2.77556e-16
464 1 0 0.7 0.9 4.08747e-05 5.75581e-15 2.08167e-17
483 1 0.1 0.8 0.9 0.0012727 -4.02456e-16 6.59195e-17
468 1 0.2 0.7 0.9 -0.00371535 5.8252e-15 1.12757e-16
487 1 0.3 0.8 0.9 0.180247 -1.66533e-16 -7.97973e-17
472 1 0.402766 0.7 0.9 -0.382114 6.245e-15 1.04083e-17
476 1 0.6 0.7 0.9 -0.00446794 4.91621e-15 1.92554e-16
491 1 0.5 0.8 0.9 0.207356 4.16334e-17 1.73472e-16
480 1 0.8 0.7 0.9 4.51991e-05 5.55632e-15 1.94289e-16
495 1 0.7 0.8 0.9 0.00133545 -3.46945e-16 4.85723e-17
499 1 0.9 0.8 0.9 -8.32667e-17 1.31839e-16 1.11022e-16
484 1 0 0.9 0.9 4.08747e-05 2.22045e-16 -2.77556e-17
488 1 0.2 0.9 0.9 -0.00371535 2.35922e-16 1.31839e-16
492 1 0.402766 0.9 0.9 -0.382114 -2.15106e-16 -2.35922e-16
496 1 0.6 0.9 0.9 -0.00446794 6.93889e-17 6.93889e-18
500 1 0.8 0.9 0.9 4.51991e-05 2.08167e-16 -2.42861e-17
