ITEM: TIMESTEP
0
ITEM: NUMBER OF ATOMS
500
ITEM: BOX BOUNDS pp pp pp
0.0000000000000000e+00 1.8075000000000003e+01
0.0000000000000000e+00 1.8075000000000003e+01
0.0000000000000000e+00 1.8075000000000003e+01
id type xs ys zs fx fy fz
1 1 0 0 0 -2.83107e-15 -2.65066e-15 -2.9976e-15
2 1 0.1 0.1 0 1.66533e-16 3.46945e-18 -3.00801e-15
3 1 0.1 0 0.1 2.498e-16 -2.92474e-15 2.35922e-16
4 1 0 0.1 0.1 -2.96291e-15 2.22045e-16 2.77556e-16
5 1 0.2 0 0 -1.83881e-16 -3.16414e-15 -3.37924e-15
6 1 0.3 0.1 0 -2.65413e-16 3.60822e-16 -2.76862e-15
7 1 0.3 0 0.1 -2.74086e-16 -2.77556e-15 2.77556e-16
8 1 0.2 0.1 0.1 1.73472e-17 -1.94289e-16 -7.63278e-17
9 1 0.4 0 0 3.02883e-15 -3.10862e-15 -2.8727e-15
12 1 0.4 0.1 0.1 3.00801e-15 5.55112e-17 1.38778e-16
10 1 0.5 0.1 0 -5.82694e-15 5.55112e-17 -2.75474e-15
11 1 0.5 0 0.1 -5.98306e-15 -2.77556e-15 1.52656e-16
13 1 0.6 0 0 1.38778e-17 -2.7478e-15 -2.7478e-15
16 1 0.6 0.1 0.1 -3.46945e-18 3.05311e-16 3.71231e-16
14 1 0.7 0.1 0 5.89286e-15 2.498e-16 -2.97679e-15
15 1 0.7 0 0.1 5.905e-15 -2.96985e-15 2.35922e-16
17 1 0.8 0 0 -4.16334e-17 -2.50841e-15 -2.71137e-15
20 1 0.8 0.1 0.1 -6.76542e-17 3.88578e-16 4.92661e-16
18 1 0.9 0.1 0 7.63278e-17 3.67761e-16 -2.9074e-15
19 1 0.9 0 0.1 4.85723e-17 -2.88658e-15 3.46945e-16
21 1 0 0.2 0 -3.16414e-15 -1.76942e-16 -3.06699e-15
22 1 0.1 0.3 0 4.16334e-16 -2.32453e-16 -2.59862e-15
23 1 0.1 0.2 0.1 -2.77556e-16 2.25514e-17 -2.08167e-17
24 1 0 0.3 0.1 -2.82413e-15 -2.498e-16 2.63678e-16
25 1 0.2 0.2 0 -1.73472e-18 -2.08167e-17 -2.63678e-15
26 1 0.3 0.3 0 -2.58474e-16 -2.63678e-16 -2.58127e-15
27 1 0.3 0.2 0.1 -4.68375e-17 -3.98986e-17 -3.05311e-16
28 1 0.2 0.3 0.1 -3.29597e-17 -2.60209e-17 -2.498e-16
29 1 0.4 0.2 0 3.1572e-15 1.50921e-16 -2.80331e-15
32 1 0.4 0.3 0.1 2.84842e-15 -9.54098e-17 -2.77556e-17
30 1 0.5 0.3 0 -6.11837e-15 -2.56739e-16 -2.60209e-15
31 1 0.5 0.2 0.1 -5.48173e-15 -1.59595e-16 2.77556e-17
33 1 0.6 0.2 0 2.42861e-17 -1.73472e-16 -3.05311e-15
36 1 0.6 0.3 0.1 -3.46945e-18 -2.70617e-16 5.27356e-16
34 1 0.7 0.3 0 6.22245e-15 -2.98372e-16 -2.68535e-15
35 1 0.7 0.2 0.1 5.55632e-15 1.04083e-17 1.11022e-16
37 1 0.8 0.2 0 -3.46945e-17 2.77556e-17 -3.18148e-15
40 1 0.8 0.3 0.1 -1.99493e-16 -3.17454e-16 4.996e-16
38 1 0.9 0.3 0 6.93889e-17 -3.85109e-16 -3.20577e-15
39 1 0.9 0.2 0.1 -1.38778e-16 -4.16334e-17 4.02456e-16
41 1 0 0.4 0 -2.98372e-15 2.90046e-15 -3.13638e-15
42 1 0.1 0.4 0.1 5.55112e-17 3.18842e-15 1.70003e-16
43 1 0.2 0.4 0 -1.56125e-16 3.13638e-15 -2.84495e-15
44 1 0.3 0.4 0.1 -1.35308e-16 3.30291e-15 1.38778e-16
45 1 0.4 0.4 0 3.3324e-15 3.17107e-15 -2.90046e-15
46 1 0.5 0.4 0.1 -5.62224e-15 3.29597e-15 2.35922e-16
47 1 0.6 0.4 0 1.73472e-17 3.68455e-15 -2.88658e-15
48 1 0.7 0.4 0.1 5.70551e-15 3.02536e-15 2.35922e-16
49 1 0.8 0.4 0 -2.28983e-16 3.01842e-15 -2.67494e-15
50 1 0.9 0.4 0.1 -3.05311e-16 3.05311e-15 4.09395e-16
51 1 0 0 0.2 -3.27516e-15 -3.00454e-15 -2.498e-16
52 1 0.1 0.1 0.2 -2.77556e-16 -1.92554e-16 -3.29597e-16
53 1 0.1 0 0.3 2.22045e-16 -2.70443e-15 -2.11636e-16
54 1 0 0.1 0.3 -2.95597e-15 2.498e-16 0
55 1 0.2 0 0.2 8.67362e-18 -2.85882e-15 -1.66533e-16
56 1 0.3 0.1 0.2 1.35308e-16 -3.33067e-16 -1.9082e-16
57 1 0.3 0 0.3 -1.05818e-16 -2.7478e-15 -2.63678e-16
58 1 0.2 0.1 0.3 -1.04083e-17 -4.16334e-16 -3.46945e-18
59 1 0.4 0 0.2 3.15373e-15 -2.85882e-15 -1.94289e-16
62 1 0.4 0.1 0.3 3.02362e-15 5.55112e-17 -1.38778e-17
60 1 0.5 0.1 0.2 -5.4852e-15 8.32667e-17 -1.21431e-17
61 1 0.5 0 0.3 -6.13051e-15 -2.41474e-15 -1.17961e-16
63 1 0.6 0 0.2 2.60209e-17 -3.02536e-15 -1.80411e-16
66 1 0.6 0.1 0.3 3.46945e-18 4.71845e-16 -2.04697e-16
64 1 0.7 0.1 0.2 5.55805e-15 -5.55112e-17 -1.35308e-16
65 1 0.7 0 0.3 6.21898e-15 -2.60902e-15 -3.33067e-16
67 1 0.8 0 0.2 -2.01228e-16 -3.40353e-15 1.73472e-17
70 1 0.8 0.1 0.3 -8.50015e-17 1.94289e-16 -2.81025e-16
68 1 0.9 0.1 0.2 4.51028e-17 3.67761e-16 -1.94289e-16
69 1 0.9 0 0.3 -1.31839e-16 -3.15026e-15 -4.02456e-16
71 1 0 0.2 0.2 -2.66454e-15 -3.81639e-17 -1.38778e-17
72 1 0.1 0.3 0.2 -4.44089e-16 -1.56125e-17 -2.44596e-16
73 1 0.1 0.2 0.3 -4.44089e-16 2.08167e-17 3.81639e-17
74 1 0 0.3 0.3 -3.21965e-15 -1.94289e-16 -1.8735e-16
75 1 0.2 0.2 0.2 3.46945e-18 1.73472e-17 4.51028e-17
76 1 0.3 0.3 0.2 2.70617e-16 1.11022e-16 -1.17961e-16
77 1 0.3 0.2 0.3 4.3715e-16 -2.08167e-17 9.71445e-17
78 1 0.2 0.3 0.3 0 -5.55112e-17 -5.55112e-17
79 1 0.4 0.2 0.2 2.97505e-15 -1.76942e-16 1.73472e-17
82 1 0.4 0.3 0.3 2.86576e-15 -1.11022e-16 9.02056e-17
80 1 0.5 0.3 0.2 -4.86416e-15 -1.31839e-16 3.46945e-17
81 1 0.5 0.2 0.3 -5.50081e-15 -1.63064e-16 3.46945e-17
83 1 0.6 0.2 0.2 3.46945e-18 1.38778e-17 1.38778e-17
86 1 0.6 0.3 0.3 3.46945e-18 -2.70617e-16 -2.70617e-16
84 1 0.7 0.3 0.2 5.40887e-15 0 -2.63678e-16
85 1 0.7 0.2 0.3 4.96304e-15 -1.49186e-16 -6.93889e-18
87 1 0.8 0.2 0.2 2.08167e-16 -3.29597e-17 -3.66027e-16
90 1 0.8 0.3 0.3 3.62557e-16 1.9082e-17 -1.63064e-16
88 1 0.9 0.3 0.2 7.63278e-17 -3.1572e-16 -5.55112e-17
89 1 0.9 0.2 0.3 4.16334e-17 -2.77556e-17 -3.53884e-16
91 1 0 0.4 0.2 -2.67841e-15 3.13638e-15 0
92 1 0.1 0.4 0.3 -1.249e-16 3.52149e-15 1.09288e-16
93 1 0.2 0.4 0.2 -2.77556e-17 3.42087e-15 -2.77556e-16
94 1 0.3 0.4 0.3 1.66533e-16 3.4972e-15 7.63278e-17
95 1 0.4 0.4 0.2 2.92301e-15 3.21965e-15 3.46945e-17
96 1 0.5 0.4 0.3 -5.64306e-15 3.46251e-15 -1.04083e-16
97 1 0.6 0.4 0.2 -1.63064e-16 2.89352e-15 2.77556e-17
98 1 0.7 0.4 0.3 5.55632e-15 3.2821e-15 -1.11022e-16
99 1 0.8 0.4 0.2 -9.71445e-17 2.99587e-15 2.42861e-17
100 1 0.9 0.4 0.3 5.55112e-17 3.17801e-15 -4.85723e-17
101 1 0 0 0.4 -2.85882e-15 -2.95597e-15 3.19883e-15
102 1 0.1 0.1 0.4 1.11022e-16 2.60209e-17 3.66721e-15
103 1 0.2 0 0.4 -1.5786e-16 -2.88658e-15 3.10862e-15
104 1 0.3 0.1 0.4 2.08167e-17 -5.55112e-17 3.47986e-15
105 1 0.4 0 0.4 3.19883e-15 -2.9976e-15 3.31679e-15
106 1 0.5 0.1 0.4 -5.64132e-15 1.66533e-16 3.01842e-15
107 1 0.6 0 0.4 1.73472e-18 -2.88658e-15 3.69149e-15
108 1 0.7 0.1 0.4 5.70897e-15 1.11022e-16 3.33414e-15
109 1 0.8 0 0.4 -1.94289e-16 -2.75821e-15 2.9976e-15
110 1 0.9 0.1 0.4 -1.17961e-16 1.56125e-16 3.12944e-15
111 1 0 0.2 0.4 -2.72005e-15 -6.93889e-18 3.10862e-15
112 1 0.1 0.3 0.4 0 -4.16334e-17 3.71231e-15
113 1 0.2 0.2 0.4 -1.76942e-16 -1.8735e-16 3.74353e-15
114 1 0.3 0.3 0.4 1.73472e-16 5.55112e-17 3.48679e-15
115 1 0.4 0.2 0.4 2.91434e-15 -3.46945e-17 2.91087e-15
116 1 0.5 0.3 0.4 -5.6205e-15 -1.11022e-16 3.15026e-15
117 1 0.6 0.2 0.4 1.92554e-16 6.93889e-18 2.96291e-15
118 1 0.7 0.3 0.4 5.54418e-15 -1.11022e-16 3.60822e-15
119 1 0.8 0.2 0.4 -4.92661e-16 -6.93889e-18 3.62904e-15
120 1 0.9 0.3 0.4 7.63278e-17 -1.9082e-16 3.05311e-15
121 1 0 0.4 0.4 -2.85882e-15 3.38618e-15 3.41394e-15
122 1 0.2 0.4 0.4 -2.77556e-17 3.24046e-15 3.25434e-15
123 1 0.4 0.4 0.4 3.04617e-15 3.01148e-15 3.0323e-15
124 1 0.6 0.4 0.4 5.37764e-17 3.4972e-15 3.4972e-15
125 1 0.8 0.4 0.4 -5.27356e-16 3.46598e-15 3.49026e-15
126 1 0.1 0 0.5 2.77556e-17 -2.89699e-15 -5.97092e-15
127 1 0 0.1 0.5 -2.58127e-15 1.80411e-16 -5.84255e-15
151 1 0 0 0.6 -2.7478e-15 -2.78944e-15 -2.08167e-17
152 1 0.1 0.1 0.6 2.22045e-16 3.38271e-16 1.42247e-16
128 1 0.3 0 0.5 4.16334e-17 -2.63678e-15 -5.80092e-15
129 1 0.2 0.1 0.5 -8.67362e-18 4.71845e-16 -5.91888e-15
155 1 0.2 0 0.6 -2.25514e-17 -3.08087e-15 -1.66533e-16
156 1 0.3 0.1 0.6 -1.38778e-16 2.77556e-16 7.63278e-17
131 1 0.4 0.1 0.5 2.7929e-15 1.66533e-16 -5.77663e-15
159 1 0.4 0 0.6 2.85362e-15 -2.88658e-15 -1.80411e-16
130 1 0.5 0 0.5 -5.46438e-15 -3.16414e-15 -5.31519e-15
133 1 0.6 0.1 0.5 2.42861e-17 2.498e-16 -4.19456e-15
160 1 0.5 0.1 0.6 -4.43395e-15 -2.77556e-17 -2.22045e-16
163 1 0.6 0 0.6 -5.20417e-18 -2.27596e-15 -9.02056e-17
132 1 0.7 0 0.5 5.25101e-15 -3.2474e-15 -5.46091e-15
135 1 0.8 0.1 0.5 -1.38778e-17 2.77556e-16 -5.81826e-15
164 1 0.7 0.1 0.6 4.5311e-15 0 -2.22045e-16
167 1 0.8 0 0.6 -1.04083e-16 -2.498e-15 -1.50921e-16
134 1 0.9 0 0.5 -4.16334e-17 -2.81719e-15 -5.80785e-15
168 1 0.9 0.1 0.6 1.38778e-17 -2.498e-16 0
136 1 0.1 0.2 0.5 4.71845e-16 -2.08167e-17 -5.94316e-15
137 1 0 0.3 0.5 -2.498e-15 -1.11022e-16 -6.09235e-15
171 1 0 0.2 0.6 -3.02536e-15 -1.56125e-16 3.46945e-17
172 1 0.1 0.3 0.6 3.88578e-16 -2.02963e-16 1.04083e-17
138 1 0.3 0.2 0.5 -1.21431e-17 -1.59595e-16 -5.41234e-15
139 1 0.2 0.3 0.5 -1.70003e-16 4.16334e-17 -5.38111e-15
175 1 0.2 0.2 0.6 0 1.38778e-17 5.55112e-17
176 1 0.3 0.3 0.6 -3.05311e-16 -2.42861e-16 -5.55112e-17
141 1 0.4 0.3 0.5 2.81893e-15 -2.91434e-16 -5.7454e-15
179 1 0.4 0.2 0.6 2.77209e-15 1.73472e-17 8.32667e-17
140 1 0.5 0.2 0.5 -5.15213e-15 -1.73472e-18 -4.7462e-15
143 1 0.6 0.3 0.5 3.98986e-17 -6.93889e-17 -4.23273e-15
180 1 0.5 0.3 0.6 -4.44957e-15 -1.92554e-16 -3.33067e-16
183 1 0.6 0.2 0.6 -5.20417e-18 -2.77556e-17 -2.77556e-16
142 1 0.7 0.2 0.5 5.42101e-15 1.9082e-17 -5.2458e-15
145 1 0.8 0.3 0.5 -2.77556e-17 -2.28983e-16 -5.81479e-15
184 1 0.7 0.3 0.6 4.37324e-15 -2.48065e-16 -4.16334e-16
187 1 0.8 0.2 0.6 -2.25514e-16 -1.40513e-16 -3.7817e-16
144 1 0.9 0.2 0.5 -1.94289e-16 -5.55112e-17 -5.62744e-15
188 1 0.9 0.3 0.6 2.42861e-17 1.04083e-16 -3.60822e-16
146 1 0.1 0.4 0.5 3.05311e-16 3.11903e-15 -5.87204e-15
191 1 0 0.4 0.6 -2.89352e-15 3.69149e-15 2.77556e-17
147 1 0.3 0.4 0.5 -2.81025e-16 3.13638e-15 -5.73847e-15
193 1 0.2 0.4 0.6 -3.46945e-18 3.06352e-15 -6.93889e-18
195 1 0.4 0.4 0.6 3.19883e-15 3.67761e-15 -9.02056e-17
148 1 0.5 0.4 0.5 -5.19029e-15 3.37924e-15 -5.21111e-15
197 1 0.6 0.4 0.6 -3.46945e-18 2.77556e-15 -1.45717e-16
149 1 0.7 0.4 0.5 5.25621e-15 3.49026e-15 -5.32907e-15
199 1 0.8 0.4 0.6 -3.22659e-16 3.48853e-15 -3.08781e-16
150 1 0.9 0.4 0.5 -6.93889e-17 3.28904e-15 -5.81479e-15
153 1 0.1 0 0.7 8.32667e-17 -3.08781e-15 5.90326e-15
154 1 0 0.1 0.7 -3.05311e-15 2.77556e-17 5.89806e-15
201 1 0 0 0.8 -2.63678e-15 -2.42861e-15 -8.32667e-17
202 1 0.1 0.1 0.8 2.77556e-16 1.63064e-16 2.04697e-16
157 1 0.3 0 0.7 4.68375e-17 -2.91434e-15 5.93969e-15
158 1 0.2 0.1 0.7 -1.63064e-16 -8.32667e-17 4.96131e-15
205 1 0.2 0 0.8 -6.93889e-18 -3.05311e-15 1.17961e-16
206 1 0.3 0.1 0.8 -5.0307e-17 8.32667e-17 4.05925e-16
162 1 0.4 0.1 0.7 2.81199e-15 -8.32667e-17 5.54418e-15
209 1 0.4 0 0.8 2.66454e-15 -3.02536e-15 -2.15106e-16
161 1 0.5 0 0.7 -5.29958e-15 -3.08087e-15 5.23886e-15
166 1 0.6 0.1 0.7 3.46945e-18 5.55112e-17 4.18415e-15
210 1 0.5 0.1 0.8 -5.75061e-15 1.11022e-16 -2.42861e-17
213 1 0.6 0 0.8 2.42861e-17 -2.88658e-15 -1.04083e-16
165 1 0.7 0 0.7 5.26142e-15 -3.21965e-15 5.23193e-15
170 1 0.8 0.1 0.7 8.32667e-17 2.60209e-17 5.58928e-15
214 1 0.7 0.1 0.8 5.72632e-15 2.77556e-16 -6.93889e-18
217 1 0.8 0 0.8 2.87964e-16 -2.75648e-15 1.30104e-16
169 1 0.9 0 0.7 1.11022e-16 -2.19269e-15 5.77316e-15
218 1 0.9 0.1 0.8 1.80411e-16 0 -1.94289e-16
173 1 0.1 0.2 0.7 -8.32667e-17 2.08167e-17 5.12784e-15
174 1 0 0.3 0.7 -2.92821e-15 -8.32667e-17 6.05765e-15
221 1 0 0.2 0.8 -3.27516e-15 -4.85723e-17 -3.46945e-17
222 1 0.1 0.3 0.8 4.30211e-16 -1.71738e-16 -1.99493e-16
177 1 0.3 0.2 0.7 -1.59595e-16 -6.93889e-18 4.73926e-15
178 1 0.2 0.3 0.7 -1.61329e-16 2.28983e-16 5.44009e-15
225 1 0.2 0.2 0.8 -3.57353e-16 -1.73472e-17 4.96131e-16
226 1 0.3 0.3 0.8 -4.68375e-17 2.77556e-17 1.94289e-16
182 1 0.4 0.3 0.7 2.81893e-15 1.38778e-16 5.56499e-15
229 1 0.4 0.2 0.8 2.99413e-15 -1.56125e-17 -1.2837e-16
181 1 0.5 0.2 0.7 -4.54324e-15 1.56125e-17 4.3264e-15
186 1 0.6 0.3 0.7 3.46945e-18 -2.08167e-16 4.23966e-15
230 1 0.5 0.3 0.8 -6.09061e-15 -4.51028e-17 3.46945e-17
233 1 0.6 0.2 0.8 3.1225e-17 2.77556e-17 -1.70003e-16
185 1 0.7 0.2 0.7 5.10356e-15 -1.42247e-16 4.61783e-15
190 1 0.8 0.3 0.7 -6.93889e-17 -2.498e-16 5.88765e-15
234 1 0.7 0.3 0.8 5.89979e-15 -2.1684e-16 -5.89806e-17
237 1 0.8 0.2 0.8 -5.20417e-17 -4.51028e-17 -9.02056e-17
189 1 0.9 0.2 0.7 1.66533e-16 -5.55112e-17 5.71071e-15
238 1 0.9 0.3 0.8 1.8735e-16 -1.04083e-17 -1.17961e-16
192 1 0.1 0.4 0.7 2.77556e-16 3.13811e-15 5.79918e-15
241 1 0 0.4 0.8 -2.76862e-15 3.31679e-15 -2.01228e-16
194 1 0.3 0.4 0.7 -2.70617e-16 3.44863e-15 5.60663e-15
243 1 0.2 0.4 0.8 -3.46945e-18 3.12944e-15 -3.19189e-16
245 1 0.4 0.4 0.8 3.1572e-15 3.51108e-15 -1.94289e-16
196 1 0.5 0.4 0.7 -5.00815e-15 3.25434e-15 4.91274e-15
247 1 0.6 0.4 0.8 1.56125e-17 3.69843e-15 -1.80411e-16
198 1 0.7 0.4 0.7 4.96998e-15 3.44169e-15 4.94049e-15
249 1 0.8 0.4 0.8 -1.11022e-16 3.06352e-15 -1.11022e-16
200 1 0.9 0.4 0.7 3.46945e-16 2.83107e-15 5.73153e-15
203 1 0.1 0 0.9 3.33067e-16 -2.6975e-15 1.66533e-16
204 1 0 0.1 0.9 -2.97679e-15 1.80411e-16 4.16334e-17
207 1 0.3 0 0.9 -3.67761e-16 -3.16414e-15 1.45717e-16
208 1 0.2 0.1 0.9 -1.73472e-17 2.77556e-16 -1.66533e-16
212 1 0.4 0.1 0.9 2.91087e-15 0 1.73472e-16
211 1 0.5 0 0.9 -5.7801e-15 -2.52576e-15 1.59595e-16
216 1 0.6 0.1 0.9 4.16334e-17 -8.04912e-16 4.44089e-16
215 1 0.7 0 0.9 5.77489e-15 -2.44249e-15 1.59595e-16
220 1 0.8 0.1 0.9 -8.32667e-17 5.55112e-17 3.46945e-16
219 1 0.9 0 0.9 -2.77556e-17 -3.06699e-15 -1.80411e-16
223 1 0.1 0.2 0.9 3.05311e-16 0 -1.45717e-16
224 1 0 0.3 0.9 -3.13638e-15 -2.498e-16 -1.59595e-16
227 1 0.3 0.2 0.9 -3.43475e-16 -2.08167e-17 1.38778e-17
228 1 0.2 0.3 0.9 -1.66533e-16 -1.59595e-16 3.05311e-16
232 1 0.4 0.3 0.9 3.09475e-15 -1.59595e-16 3.22659e-16
231 1 0.5 0.2 0.9 -5.9952e-15 -2.08167e-17 3.00107e-16
236 1 0.6 0.3 0.9 0 -1.66533e-16 3.22659e-16
235 1 0.7 0.2 0.9 5.91541e-15 -1.38778e-17 1.71738e-16
240 1 0.8 0.3 0.9 2.498e-16 -1.52656e-16 3.64292e-16
239 1 0.9 0.2 0.9 5.55112e-17 -5.55112e-17 -2.77556e-17
242 1 0.1 0.4 0.9 0 3.55618e-15 2.28983e-16
244 1 0.3 0.4 0.9 -2.18575e-16 3.24046e-15 -1.38778e-16
246 1 0.5 0.4 0.9 -5.9952e-15 3.45557e-15 -1.52656e-16
248 1 0.7 0.4 0.9 5.80092e-15 3.47639e-15 -9.02056e-17
250 1 0.9 0.4 0.9 -5.55112e-17 2.67841e-15 -2.77556e-16
251 1 0.1 0.5 0 1.66533e-16 -5.86337e-15 -2.97332e-15
252 1 0 0.5 0.1 -2.60902e-15 -5.63438e-15 3.33067e-16
261 1 0 0.6 0 -2.76168e-15 2.77556e-17 -2.72699e-15
263 1 0.1 0.6 0.1 1.94289e-16 1.04083e-17 3.90313e-16
253 1 0.3 0.5 0 3.98986e-17 -5.66214e-15 -2.85189e-15
254 1 0.2 0.5 0.1 -1.9082e-17 -6.02296e-15 6.245e-16
265 1 0.2 0.6 0 -8.67362e-18 5.55112e-17 -3.17454e-15
267 1 0.3 0.6 0.1 -1.249e-16 2.77556e-17 3.57353e-16
256 1 0.4 0.5 0.1 2.78944e-15 -5.66214e-15 4.3715e-16
269 1 0.4 0.6 0 2.84495e-15 -1.38778e-16 -2.89699e-15
255 1 0.5 0.5 0 -5.45917e-15 -5.35683e-15 -3.21965e-15
258 1 0.6 0.5 0.1 3.29597e-17 -4.35763e-15 1.59595e-16
271 1 0.5 0.6 0.1 -4.42181e-15 -1.66533e-16 -1.80411e-16
273 1 0.6 0.6 0 4.16334e-17 -1.11022e-16 -2.28983e-15
257 1 0.7 0.5 0 5.24927e-15 -5.30131e-15 -3.18495e-15
260 1 0.8 0.5 0.1 -3.46945e-17 -5.69683e-15 2.42861e-17
275 1 0.7 0.6 0.1 4.48773e-15 -1.11022e-16 -4.51028e-17
277 1 0.8 0.6 0 5.55112e-17 -2.77556e-17 -2.92821e-15
259 1 0.9 0.5 0 -1.94289e-16 -5.66214e-15 -2.93515e-15
279 1 0.9 0.6 0.1 1.38778e-17 -3.46945e-17 -1.45717e-16
262 1 0.1 0.7 0 2.22045e-16 5.905e-15 -2.94903e-15
264 1 0 0.7 0.1 -3.10862e-15 5.94316e-15 5.55112e-17
281 1 0 0.8 0 -2.48412e-15 -2.498e-16 -2.39392e-15
283 1 0.1 0.8 0.1 3.05311e-16 1.04083e-16 3.01842e-16
266 1 0.3 0.7 0 -1.04083e-16 5.92928e-15 -2.91434e-15
268 1 0.2 0.7 0.1 -1.04083e-17 5.71418e-15 -2.77556e-17
285 1 0.2 0.8 0 -1.04083e-17 -1.38778e-17 -3.23352e-15
287 1 0.3 0.8 0.1 -3.48679e-16 -7.63278e-17 3.33067e-16
272 1 0.4 0.7 0.1 2.6628e-15 5.72459e-15 -8.32667e-17
289 1 0.4 0.8 0 2.83454e-15 -2.77556e-17 -2.84495e-15
270 1 0.5 0.7 0 -5.46611e-15 5.20764e-15 -3.21965e-15
276 1 0.6 0.7 0.1 -1.04083e-17 4.19803e-15 1.11022e-16
291 1 0.5 0.8 0.1 -5.80265e-15 6.59195e-17 5.55112e-17
293 1 0.6 0.8 0 -3.46945e-18 -1.17961e-16 -2.63678e-15
274 1 0.7 0.7 0 5.23193e-15 5.21284e-15 -3.19189e-15
280 1 0.8 0.7 0.1 -9.71445e-17 5.59101e-15 -5.20417e-17
295 1 0.7 0.8 0.1 5.75408e-15 -5.20417e-17 8.32667e-17
297 1 0.8 0.8 0 -5.55112e-17 -5.55112e-17 -2.47719e-15
278 1 0.9 0.7 0 -5.55112e-17 5.53724e-15 -2.09555e-15
299 1 0.9 0.8 0.1 1.45717e-16 -2.46331e-16 9.02056e-17
282 1 0.1 0.9 0 3.88578e-16 1.19696e-16 -2.88658e-15
284 1 0 0.9 0.1 -2.9074e-15 2.77556e-17 3.88578e-16
286 1 0.3 0.9 0 -2.01228e-16 1.04083e-16 -2.95597e-15
288 1 0.2 0.9 0.1 6.93889e-18 -1.80411e-16 3.88578e-16
292 1 0.4 0.9 0.1 3.2474e-15 1.66533e-16 -1.94289e-16
290 1 0.5 0.9 0 -5.96051e-15 9.02056e-17 -2.85882e-15
296 1 0.6 0.9 0.1 1.56125e-16 0 -3.33067e-16
294 1 0.7 0.9 0 5.7853e-15 6.245e-17 -2.25514e-15
300 1 0.8 0.9 0.1 -4.30211e-16 5.20417e-17 3.85109e-16
298 1 0.9 0.9 0 -1.38778e-17 4.16334e-17 -2.67841e-15
301 1 0.1 0.5 0.2 1.66533e-16 -5.44009e-15 -1.59595e-16
302 1 0 0.5 0.3 -2.66454e-15 -6.1201e-15 6.93889e-18
311 1 0 0.6 0.2 -3.01148e-15 0 -1.59595e-16
313 1 0.1 0.6 0.3 3.60822e-16 1.04083e-17 -2.41127e-16
303 1 0.3 0.5 0.2 2.94903e-17 -5.44009e-15 -1.73472e-16
304 1 0.2 0.5 0.3 -2.42861e-17 -5.4956e-15 2.15106e-16
315 1 0.2 0.6 0.2 0 0 1.38778e-17
317 1 0.3 0.6 0.3 -2.91434e-16 2.77556e-17 -2.74086e-16
306 1 0.4 0.5 0.3 2.81199e-15 -5.85643e-15 -2.70617e-16
319 1 0.4 0.6 0.2 2.90393e-15 -1.38778e-16 1.73472e-17
305 1 0.5 0.5 0.2 -5.35683e-15 -5.32907e-15 -2.77556e-17
308 1 0.6 0.5 0.3 4.51028e-17 -4.4964e-15 7.63278e-17
321 1 0.5 0.6 0.3 -4.59181e-15 -3.05311e-16 -4.16334e-17
323 1 0.6 0.6 0.2 8.67362e-18 -3.33067e-16 -3.33067e-16
307 1 0.7 0.5 0.2 5.25968e-15 -4.85723e-15 -6.93889e-18
310 1 0.8 0.5 0.3 1.2837e-16 -5.66908e-15 9.36751e-17
325 1 0.7 0.6 0.3 4.70977e-15 -2.77556e-16 -9.71445e-17
327 1 0.8 0.6 0.2 -6.245e-17 -2.498e-16 -1.49186e-16
309 1 0.9 0.5 0.2 -2.35922e-16 -5.66214e-15 -6.93889e-17
329 1 0.9 0.6 0.3 -1.42247e-16 -4.33681e-16 9.71445e-17
312 1 0.1 0.7 0.2 8.32667e-17 5.12437e-15 -1.43982e-16
314 1 0 0.7 0.3 -2.7478e-15 6.01602e-15 -3.05311e-16
331 1 0 0.8 0.2 -3.2474e-15 -1.94289e-16 -1.66533e-16
333 1 0.1 0.8 0.3 9.71445e-17 3.53884e-16 -1.11022e-16
316 1 0.3 0.7 0.2 -3.26128e-16 4.95784e-15 -1.73472e-16
318 1 0.2 0.7 0.3 3.46945e-18 4.80865e-15 -3.26128e-16
335 1 0.2 0.8 0.2 -2.25514e-17 8.32667e-17 -1.56125e-16
337 1 0.3 0.8 0.3 -2.01228e-16 4.82253e-16 -1.38778e-16
322 1 0.4 0.7 0.3 2.99066e-15 5.57193e-15 2.60209e-16
339 1 0.4 0.8 0.2 2.97158e-15 -1.11022e-16 2.08167e-17
320 1 0.5 0.7 0.2 -4.69416e-15 4.61089e-15 -1.49186e-16
326 1 0.6 0.7 0.3 3.46945e-18 4.38885e-15 -8.32667e-17
341 1 0.5 0.8 0.3 -5.9102e-15 -2.28983e-16 1.00614e-16
343 1 0.6 0.8 0.2 2.02963e-16 1.04083e-16 -1.2837e-16
324 1 0.7 0.7 0.2 5.23886e-15 5.0706e-15 -1.42247e-16
330 1 0.8 0.7 0.3 -2.11636e-16 5.84775e-15 -1.26635e-16
345 1 0.7 0.8 0.3 5.88071e-15 -2.25514e-16 -6.59195e-17
347 1 0.8 0.8 0.2 -4.16334e-17 4.16334e-17 -1.8735e-16
328 1 0.9 0.7 0.2 1.11022e-16 5.7454e-15 -4.16334e-17
349 1 0.9 0.8 0.3 -3.46945e-18 -9.71445e-17 -2.08167e-16
332 1 0.1 0.9 0.2 3.33067e-16 -9.02056e-17 1.04083e-17
334 1 0 0.9 0.3 -3.04617e-15 -2.77556e-17 -3.40006e-16
336 1 0.3 0.9 0.2 -3.52149e-16 8.32667e-17 -2.77556e-17
338 1 0.2 0.9 0.3 1.04083e-17 2.08167e-17 -3.1225e-16
342 1 0.4 0.9 0.3 2.74433e-15 3.46945e-16 -1.73472e-16
340 1 0.5 0.9 0.2 -5.86683e-15 2.28983e-16 -4.85723e-17
346 1 0.6 0.9 0.3 1.94289e-16 3.33067e-16 -4.85723e-17
344 1 0.7 0.9 0.2 5.93969e-15 4.85723e-17 -2.22045e-16
350 1 0.8 0.9 0.3 6.245e-17 2.94903e-16 -7.28584e-17
348 1 0.9 0.9 0.2 1.38778e-17 5.55112e-17 -2.15106e-16
351 1 0.1 0.5 0.4 2.77556e-16 -5.95531e-15 3.17454e-15
356 1 0 0.6 0.4 -2.9074e-15 0 3.69149e-15
352 1 0.3 0.5 0.4 -2.84495e-16 -5.82867e-15 3.11556e-15
358 1 0.2 0.6 0.4 3.46945e-18 -1.38778e-16 2.91087e-15
360 1 0.4 0.6 0.4 3.33934e-15 2.77556e-17 3.70537e-15
353 1 0.5 0.5 0.4 -5.2007e-15 -5.16254e-15 3.33761e-15
362 1 0.6 0.6 0.4 -3.46945e-18 -8.32667e-17 2.85882e-15
354 1 0.7 0.5 0.4 5.26662e-15 -5.35683e-15 3.52496e-15
364 1 0.8 0.6 0.4 -4.51028e-16 -1.66533e-16 3.48332e-15
355 1 0.9 0.5 0.4 -1.11022e-16 -5.85643e-15 2.70617e-15
357 1 0.1 0.7 0.4 -2.77556e-17 5.5702e-15 3.31332e-15
366 1 0 0.8 0.4 -2.73392e-15 -3.60822e-16 3.4972e-15
359 1 0.3 0.7 0.4 5.20417e-17 5.55112e-15 3.45557e-15
368 1 0.2 0.8 0.4 3.46945e-18 2.77556e-17 3.10862e-15
370 1 0.4 0.8 0.4 3.3272e-15 -5.13478e-16 3.69149e-15
361 1 0.5 0.7 0.4 -5.33774e-15 5.23886e-15 3.52496e-15
372 1 0.6 0.8 0.4 4.33681e-17 -4.51028e-16 3.70884e-15
363 1 0.7 0.7 0.4 5.26836e-15 5.2805e-15 3.67067e-15
374 1 0.8 0.8 0.4 -2.498e-16 -4.16334e-16 2.8727e-15
365 1 0.9 0.7 0.4 5.55112e-17 5.75928e-15 3.28904e-15
367 1 0.1 0.9 0.4 2.77556e-17 3.95517e-16 3.74006e-15
369 1 0.3 0.9 0.4 -2.11636e-16 1.17961e-16 3.02536e-15
371 1 0.5 0.9 0.4 -5.98133e-15 -1.52656e-16 3.42087e-15
373 1 0.7 0.9 0.4 5.77316e-15 2.08167e-17 3.26822e-15
375 1 0.9 0.9 0.4 -8.32667e-17 6.93889e-17 2.4078e-15
376 1 0 0.5 0.5 -3.21965e-15 -5.46091e-15 -5.42622e-15
381 1 0.1 0.6 0.5 2.77556e-17 -3.98986e-17 -4.48079e-15
401 1 0.1 0.5 0.6 0 -4.51202e-15 -4.51028e-17
411 1 0 0.6 0.6 -2.60209e-15 -4.16334e-17 -1.8735e-16
377 1 0.2 0.5 0.5 3.46945e-18 -5.30131e-15 -5.3707e-15
383 1 0.3 0.6 0.5 5.89806e-17 -5.55112e-17 -4.46518e-15
403 1 0.3 0.5 0.6 8.32667e-17 -4.46865e-15 -2.08167e-17
415 1 0.2 0.6 0.6 -2.77556e-17 -3.05311e-16 -3.22659e-16
378 1 0.4 0.5 0.5 3.33587e-15 -5.16254e-15 -5.23193e-15
419 1 0.4 0.6 0.6 2.52576e-15 2.77556e-17 -1.73472e-16
379 1 0.6 0.5 0.5 3.64292e-17 -4.27436e-15 -4.27436e-15
385 1 0.5 0.6 0.5 -4.31426e-15 5.55112e-17 -4.22579e-15
405 1 0.5 0.5 0.6 -4.3264e-15 -4.13558e-15 -7.63278e-17
423 1 0.6 0.6 0.6 2.42861e-17 2.77556e-17 6.59195e-17
380 1 0.8 0.5 0.5 -4.02456e-16 -5.34468e-15 -5.34468e-15
387 1 0.7 0.6 0.5 4.18242e-15 2.77556e-17 -4.22579e-15
407 1 0.7 0.5 0.6 4.18762e-15 -4.2466e-15 -1.38778e-16
427 1 0.8 0.6 0.6 2.01228e-16 -1.66533e-16 -4.12864e-16
389 1 0.9 0.6 0.5 6.93889e-17 -6.93889e-18 -4.30211e-15
409 1 0.9 0.5 0.6 2.08167e-17 -4.55191e-15 -1.249e-16
382 1 0 0.7 0.5 -3.27516e-15 5.23193e-15 -5.47479e-15
391 1 0.1 0.8 0.5 2.77556e-17 1.42247e-16 -5.53203e-15
412 1 0.1 0.7 0.6 8.32667e-17 4.3316e-15 -5.89806e-17
431 1 0 0.8 0.6 -2.62984e-15 -2.498e-16 -1.59595e-16
384 1 0.2 0.7 0.5 8.67362e-18 5.23886e-15 -4.82947e-15
393 1 0.3 0.8 0.5 -9.02056e-17 -5.55112e-17 -5.6205e-15
416 1 0.3 0.7 0.6 -1.17961e-16 4.18068e-15 -5.55112e-17
435 1 0.2 0.8 0.6 -1.9082e-17 -6.93889e-18 -4.16334e-16
386 1 0.4 0.7 0.5 3.49547e-15 5.29091e-15 -5.32907e-15
439 1 0.4 0.8 0.6 3.28557e-15 -1.80411e-16 -2.498e-16
388 1 0.6 0.7 0.5 2.77556e-17 4.19456e-15 -4.21885e-15
395 1 0.5 0.8 0.5 -5.31519e-15 -4.30211e-16 -5.2805e-15
420 1 0.5 0.7 0.6 -4.1217e-15 4.16681e-15 -5.55112e-17
443 1 0.6 0.8 0.6 -5.20417e-18 -1.38778e-16 -4.71845e-16
390 1 0.8 0.7 0.5 -4.30211e-16 5.04284e-15 -5.32387e-15
397 1 0.7 0.8 0.5 5.06366e-15 -4.30211e-16 -5.39152e-15
424 1 0.7 0.7 0.6 3.84068e-15 3.86149e-15 -4.71845e-16
447 1 0.8 0.8 0.6 -5.37764e-17 -3.92048e-16 1.66533e-16
399 1 0.9 0.8 0.5 8.32667e-17 -4.92661e-16 -6.02296e-15
428 1 0.9 0.7 0.6 1.38778e-17 4.60743e-15 -1.38778e-17
392 1 0 0.9 0.5 -2.09555e-15 -6.93889e-17 -5.97439e-15
432 1 0.1 0.9 0.6 -4.996e-16 5.20417e-18 -6.07153e-17
394 1 0.2 0.9 0.5 -1.76942e-16 -2.56739e-16 -5.76622e-15
436 1 0.3 0.9 0.6 -3.81639e-17 1.59595e-16 -2.63678e-16
396 1 0.4 0.9 0.5 3.29251e-15 -1.31839e-16 -5.76622e-15
398 1 0.6 0.9 0.5 1.04083e-17 4.85723e-17 -4.62824e-15
440 1 0.5 0.9 0.6 -4.93529e-15 2.08167e-17 -1.38778e-17
400 1 0.8 0.9 0.5 -4.78784e-16 6.245e-17 -6.05245e-15
444 1 0.7 0.9 0.6 4.73926e-15 1.45717e-16 4.16334e-17
448 1 0.9 0.9 0.6 6.93889e-17 -4.16334e-17 0
402 1 0 0.5 0.7 -3.2474e-15 -5.46091e-15 5.25274e-15
413 1 0.1 0.6 0.7 5.55112e-17 -1.30104e-16 4.37497e-15
451 1 0.1 0.5 0.8 8.32667e-17 -5.62224e-15 1.52656e-16
461 1 0 0.6 0.8 -2.92127e-15 -1.66533e-16 -2.70617e-16
404 1 0.2 0.5 0.7 -1.73472e-18 -5.2458e-15 5.05845e-15
417 1 0.3 0.6 0.7 -4.85723e-17 -1.11022e-16 4.59702e-15
453 1 0.3 0.5 0.8 5.0307e-17 -5.60663e-15 1.04083e-16
465 1 0.2 0.6 0.8 3.46945e-18 -6.38378e-16 -1.59595e-16
406 1 0.4 0.5 0.7 3.18322e-15 -5.27356e-15 5.23886e-15
469 1 0.4 0.6 0.8 3.29077e-15 -2.77556e-16 -1.63064e-16
408 1 0.6 0.5 0.7 2.77556e-17 -3.9968e-15 4.20497e-15
421 1 0.5 0.6 0.7 -3.88752e-15 -2.77556e-16 4.09742e-15
455 1 0.5 0.5 0.8 -5.30305e-15 -5.10703e-15 -2.77556e-16
473 1 0.6 0.6 0.8 1.9082e-17 -4.71845e-16 -8.32667e-17
410 1 0.8 0.5 0.7 -2.63678e-16 -5.12958e-15 5.09662e-15
425 1 0.7 0.6 0.7 3.88578e-15 -3.33067e-16 4.04538e-15
457 1 0.7 0.5 0.8 5.07233e-15 -5.16254e-15 -2.98372e-16
477 1 0.8 0.6 0.8 -4.11129e-16 -1.38778e-16 -2.67147e-16
429 1 0.9 0.6 0.7 1.17961e-16 -1.49186e-16 4.75314e-15
459 1 0.9 0.5 0.8 -1.45717e-16 -5.92582e-15 -2.77556e-17
414 1 0 0.7 0.7 -3.30291e-15 5.21111e-15 5.22499e-15
433 1 0.1 0.8 0.7 -2.77556e-17 -6.245e-17 5.7454e-15
462 1 0.1 0.7 0.8 8.32667e-17 5.89459e-15 2.08167e-17
481 1 0 0.8 0.8 -2.20657e-15 -3.88578e-16 -4.23273e-16
418 1 0.2 0.7 0.7 -6.93889e-18 5.41234e-15 5.04805e-15
437 1 0.3 0.8 0.7 -2.498e-16 -2.498e-16 5.75234e-15
466 1 0.3 0.7 0.8 -2.51535e-16 5.71765e-15 -1.94289e-16
485 1 0.2 0.8 0.8 -3.46945e-17 -2.28983e-16 8.32667e-17
422 1 0.4 0.7 0.7 2.59515e-15 5.07927e-15 4.90927e-15
489 1 0.4 0.8 0.8 3.29944e-15 -2.35922e-16 -2.35922e-16
426 1 0.6 0.7 0.7 -1.31839e-16 3.74006e-15 3.93435e-15
441 1 0.5 0.8 0.7 -5.15039e-15 6.93889e-17 5.06192e-15
470 1 0.5 0.7 0.8 -5.27182e-15 5.17988e-15 3.747e-16
493 1 0.6 0.8 0.8 1.38778e-17 -2.28983e-16 -2.22045e-16
430 1 0.8 0.7 0.7 3.60822e-16 5.1608e-15 4.741e-15
445 1 0.7 0.8 0.7 5.04805e-15 2.498e-16 5.02029e-15
474 1 0.7 0.7 0.8 5.0706e-15 5.00641e-15 5.41234e-16
497 1 0.8 0.8 0.8 -4.05925e-16 -3.48679e-16 -2.32453e-16
449 1 0.9 0.8 0.7 2.42861e-16 -3.1225e-16 5.61357e-15
478 1 0.9 0.7 0.8 1.80411e-16 5.66214e-15 -3.46945e-16
434 1 0 0.9 0.7 -2.2482e-15 5.55112e-17 5.69683e-15
482 1 0.1 0.9 0.8 -1.80411e-16 1.94289e-16 -3.81639e-16
438 1 0.2 0.9 0.7 -4.85723e-17 8.32667e-17 5.64826e-15
486 1 0.3 0.9 0.8 -1.92554e-16 2.91434e-16 -6.93889e-17
442 1 0.4 0.9 0.7 3.34455e-15 7.63278e-17 5.64132e-15
446 1 0.6 0.9 0.7 -9.36751e-17 1.31839e-16 4.76008e-15
490 1 0.5 0.9 0.8 -5.96745e-15 -2.08167e-17 -4.85723e-16
450 1 0.8 0.9 0.7 -3.19189e-16 2.35922e-16 5.61703e-15
494 1 0.7 0.9 0.8 5.71765e-15 1.31839e-16 -2.91434e-16
498 1 0.9 0.9 0.8 -1.249e-16 2.77556e-16 2.35922e-16
452 1 0 0.5 0.9 -2.10942e-15 -5.93969e-15 -1.31839e-16
463 1 0.1 0.6 0.9 -4.44089e-16 -1.66533e-16 3.46945e-16
454 1 0.2 0.5 0.9 -1.63064e-16 -5.77316e-15 -3.05311e-16
467 1 0.3 0.6 0.9 4.52763e-16 -2.77556e-16 2.98372e-16
456 1 0.4 0.5 0.9 2.71831e-15 -5.88418e-15 -1.31839e-16
458 1 0.6 0.5 0.9 1.04083e-17 -4.57967e-15 1.38778e-17
471 1 0.5 0.6 0.9 -4.92488e-15 2.77556e-17 6.93889e-18
460 1 0.8 0.5 0.9 4.16334e-17 -5.64999e-15 1.45717e-16
475 1 0.7 0.6 0.9 4.89539e-15 2.77556e-17 1.59595e-16
479 1 0.9 0.6 0.9 -2.28983e-16 -3.64292e-16 2.77556e-16
464 1 0 0.7 0.9 -2.22045e-15 5.735e-15 -6.93889e-18
483 1 0.1 0.8 0.9 -1.66533e-16 -4.16334e-16 2.01228e-16
468 1 0.2 0.7 0.9 -3.46945e-18 5.88418e-15 1.45717e-16
487 1 0.3 0.8 0.9 -4.51028e-17 -2.498e-16 2.98372e-16
472 1 0.4 0.7 0.9 3.32373e-15 5.7454e-15 -3.46945e-17
476 1 0.6 0.7 0.9 2.77556e-17 4.71845e-15 -2.08167e-17
491 1 0.5 0.8 0.9 -5.97786e-15 -4.71845e-16 2.08167e-17
480 1 0.8 0.7 0.9 -4.57967e-16 5.55632e-15 1.94289e-16
495 1 0.7 0.8 0.9 5.72806e-15 -4.996e-16 6.245e-17
499 1 0.9 0.8 0.9 -8.32667e-17 1.31839e-16 1.11022e-16
484 1 0 0.9 0.9 -2.67841e-15 2.22045e-16 -2.77556e-17
488 1 0.2 0.9 0.9 -2.77556e-17 3.67761e-16 2.91434e-16
492 1 0.4 0.9 0.9 2.41474e-15 9.02056e-17 -6.245e-17
496 1 0.6 0.9 0.9 6.93889e-18 4.85723e-17 -3.46945e-17
500 1 0.8 0.9 0.9 2.84495e-16 1.80411e-16 -2.42861e-17
