ITEM: TIMESTEP
0
ITEM: NUMBER OF ATOMS
250
ITEM: BOX BOUNDS pp pp pp
0.0000000000000000e+00 1.4276619999999999e+01
0.0000000000000000e+00 1.4276619999999999e+01
0.0000000000000000e+00 1.4276619999999999e+01
id type xs ys zs fx fy fz
1 1 0 0 0 2.22045e-16 2.63678e-16 3.05311e-16
2 1 0.1 0.1 0.1 1.16573e-15 1.22818e-15 9.36751e-16
11 1 0 0.2 0 3.33067e-16 2.04697e-15 2.35922e-15
26 1 0 0 0.2 1.22125e-15 1.27676e-15 9.4369e-16
36 1 0 0.2 0.2 1.44329e-15 3.19189e-15 1.02696e-15
3 1 0.2 0 0 2.07126e-15 5.00468e-16 2.51275e-15
4 1 0.3 0.1 0.1 -4.87436e-15 1.11022e-15 1.00614e-15
13 1 0.2 0.2 0 2.13024e-15 1.89085e-15 2.81719e-15
28 1 0.2 0 0.2 3.21618e-15 1.66533e-15 7.77156e-16
38 1 0.2 0.2 0.2 1.91513e-15 1.96414e-15 2.00534e-15
5 1 0.4 0 0 8.13152e-16 3.88578e-16 4.71845e-16
6 1 0.5 0.1 0.1 8.22194e-15 1.22125e-15 8.95117e-16
15 1 0.4 0.2 0 5.84602e-16 2.01228e-15 2.81025e-15
30 1 0.4 0 0.2 6.28837e-16 7.77156e-16 -3.60822e-16
40 1 0.4 0.2 0.2 5.55112e-16 3.84415e-15 -1.26635e-16
7 1 0.6 0 0 -5.75907e-15 1.33227e-15 1.36002e-15
8 1 0.7 0.1 0.1 -1.46693e-15 1.11022e-15 8.88178e-16
17 1 0.6 0.2 0 -5.56629e-15 8.7777e-16 3.53884e-15
32 1 0.6 0 0.2 -7.69263e-15 1.4988e-15 6.38378e-16
42 1 0.6 0.2 0.2 -6.33955e-15 2.01922e-15 -1.7434e-16
9 1 0.8 0 0 2.77556e-17 3.95517e-16 2.91434e-16
10 1 0.9 0.1 0.1 -1.52656e-16 1.20737e-15 8.46545e-16
19 1 0.8 0.2 0 1.66533e-16 1.97065e-15 2.47719e-15
34 1 0.8 0 0.2 8.32667e-17 3.53884e-16 -2.77556e-16
44 1 0.8 0.2 0.2 2.77556e-16 4.07313e-15 -2.56739e-16
12 1 0.1 0.3 0.1 1.22125e-15 -4.77396e-15 1.07553e-15
21 1 0 0.4 0 3.33067e-16 6.93889e-16 4.16334e-16
46 1 0 0.4 0.2 5.55112e-16 7.77156e-16 -5.55112e-17
14 1 0.3 0.3 0.1 -2.84842e-15 -2.7825e-15 9.08995e-16
22 1 0.2 0.4 0 2.19616e-15 6.66134e-16 2.60989e-15
47 1 0.2 0.4 0.2 3.9066e-15 5.55112e-16 -2.08167e-16
16 1 0.5 0.3 0.1 4.33204e-15 -4.6213e-15 7.42462e-16
23 1 0.4 0.4 0 6.38378e-16 6.66134e-16 4.44089e-16
48 1 0.4 0.4 0.2 6.10623e-16 4.44089e-16 -3.88578e-16
18 1 0.7 0.3 0.1 -1.39081e-15 -4.80865e-15 7.42462e-16
24 1 0.6 0.4 0 -4.57967e-15 6.66134e-16 3.88578e-16
49 1 0.6 0.4 0.2 -6.32827e-15 7.77156e-16 1.4988e-15
20 1 0.9 0.3 0.1 -1.80411e-16 -4.79478e-15 7.21645e-16
25 1 0.8 0.4 0 1.11022e-16 6.03684e-16 2.15106e-16
50 1 0.8 0.4 0.2 2.77556e-17 7.07767e-16 -1.45717e-16
27 1 0.1 0.1 0.3 1.22125e-15 1.17267e-15 -4.80865e-15
51 1 0 0 0.4 3.33067e-16 3.33067e-16 8.60423e-16
56 1 0 0.2 0.4 2.22045e-16 2.01228e-16 7.77156e-16
29 1 0.3 0.1 0.3 -2.76125e-15 1.05471e-15 -2.8727e-15
52 1 0.2 0 0.4 1.17961e-16 4.44957e-16 6.66134e-16
57 1 0.2 0.2 0.4 2.08167e-15 1.99146e-15 7.07767e-16
31 1 0.5 0.1 0.3 6.32524e-15 9.99201e-16 -2.58127e-15
53 1 0.4 0 0.4 7.47666e-16 6.10623e-16 7.21645e-16
58 1 0.4 0.2 0.4 7.77156e-16 -1.56125e-16 5.88939e-16
33 1 0.7 0.1 0.3 -1.19262e-15 1.11022e-15 -6.38378e-16
54 1 0.6 0 0.4 -4.58921e-15 6.10623e-16 8.04912e-16
59 1 0.6 0.2 0.4 -4.50594e-15 -1.59595e-16 9.29812e-16
35 1 0.9 0.1 0.3 -2.22045e-16 9.99201e-16 -8.04912e-16
55 1 0.8 0 0.4 -8.32667e-17 5.06539e-16 5.75928e-16
60 1 0.8 0.2 0.4 5.55112e-17 -8.32667e-17 6.17562e-16
37 1 0.1 0.3 0.3 8.32667e-16 -2.75474e-15 -3.00454e-15
61 1 0 0.4 0.4 2.22045e-16 6.93889e-16 6.93889e-16
39 1 0.3 0.3 0.3 -3.73768e-15 -3.74006e-15 -3.94129e-15
62 1 0.2 0.4 0.4 -1.35308e-16 5.55112e-16 5.27356e-16
41 1 0.5 0.3 0.3 5.39607e-15 -1.76942e-15 -3.63598e-15
63 1 0.4 0.4 0.4 8.32667e-16 6.66134e-16 4.996e-16
43 1 0.7 0.3 0.3 -1.22537e-15 -2.81025e-15 -2.76168e-15
64 1 0.6 0.4 0.4 -4.35763e-15 7.77156e-16 6.38378e-16
45 1 0.9 0.3 0.3 -6.93889e-17 -2.78944e-15 -2.91434e-15
65 1 0.8 0.4 0.4 5.55112e-17 5.89806e-16 5.89806e-16
66 1 0.1 0.1 0.5 9.4369e-16 1.06165e-15 4.55191e-15
76 1 0 0 0.6 3.33067e-16 4.30211e-16 -4.96825e-15
77 1 0.1 0.1 0.7 1.05471e-15 1.22125e-15 -1.42941e-15
86 1 0 0.2 0.6 4.44089e-16 1.83187e-15 -6.91114e-15
67 1 0.3 0.1 0.5 -2.70704e-15 1.11022e-15 6.43929e-15
78 1 0.2 0 0.6 1.73472e-15 5.55112e-16 -6.80185e-15
79 1 0.3 0.1 0.7 -8.18789e-16 1.05471e-15 -1.51268e-15
88 1 0.2 0.2 0.6 1.7937e-15 1.84661e-15 -6.66047e-15
68 1 0.5 0.1 0.5 4.34505e-15 1.11022e-15 4.2466e-15
80 1 0.4 0 0.6 6.26669e-16 6.66134e-16 -4.71845e-15
81 1 0.5 0.1 0.7 4.48426e-15 6.66134e-16 -1.34615e-15
90 1 0.4 0.2 0.6 4.48643e-16 1.60288e-15 -6.76976e-15
69 1 0.7 0.1 0.5 -1.38127e-15 1.05471e-15 4.4062e-15
82 1 0.6 0 0.6 -4.44306e-15 5.55112e-16 -4.46865e-15
83 1 0.7 0.1 0.7 -1.14405e-15 9.99201e-16 -1.47105e-15
92 1 0.6 0.2 0.6 -3.31506e-15 7.91034e-16 -5.83301e-15
70 1 0.9 0.1 0.5 5.55112e-17 1.04777e-15 4.56579e-15
84 1 0.8 0 0.6 0 6.66134e-16 -4.57967e-15
85 1 0.9 0.1 0.7 -1.38778e-16 9.78384e-16 -1.48492e-15
94 1 0.8 0.2 0.6 5.55112e-17 1.8735e-15 -6.70991e-15
71 1 0.1 0.3 0.5 9.99201e-16 -2.64372e-15 6.4948e-15
87 1 0.1 0.3 0.7 1.11022e-15 -8.11851e-16 -1.47798e-15
96 1 0 0.4 0.6 3.33067e-16 5.27356e-16 -4.85723e-15
72 1 0.3 0.3 0.5 -2.80375e-15 -2.71311e-15 6.34909e-15
89 1 0.3 0.3 0.7 -2.87162e-15 -2.86576e-15 -1.22125e-15
97 1 0.2 0.4 0.6 1.63064e-15 8.88178e-16 -6.56593e-15
73 1 0.5 0.3 0.5 3.5809e-15 -1.68615e-15 5.1556e-15
91 1 0.5 0.3 0.7 4.41379e-15 -6.73073e-16 -1.17267e-15
98 1 0.4 0.4 0.6 7.77156e-16 8.88178e-16 -4.7462e-15
74 1 0.7 0.3 0.5 -1.36046e-15 -2.54657e-15 6.32133e-15
93 1 0.7 0.3 0.7 -1.10827e-15 -7.14706e-16 -1.33227e-15
99 1 0.6 0.4 0.6 -4.2466e-15 7.77156e-16 -4.71845e-15
75 1 0.9 0.3 0.5 -1.94289e-16 -2.62984e-15 6.43929e-15
95 1 0.9 0.3 0.7 -1.11022e-16 -7.00828e-16 -1.40166e-15
100 1 0.8 0.4 0.6 1.11022e-16 8.11851e-16 -4.78784e-15
101 1 0 0 0.8 2.22045e-16 3.19189e-16 8.32667e-17
102 1 0.1 0.1 0.9 1.05471e-15 1.11716e-15 6.93889e-17
111 1 0 0.2 0.8 3.33067e-16 3.46945e-17 8.32667e-17
103 1 0.2 0 0.8 0 2.78423e-16 1.52656e-16
104 1 0.3 0.1 0.9 -8.32234e-16 9.99201e-16 1.11022e-16
113 1 0.2 0.2 0.8 2.10942e-15 1.93595e-15 4.16334e-17
105 1 0.4 0 0.8 8.03394e-16 1.66533e-16 2.22045e-16
106 1 0.5 0.1 0.9 4.58964e-15 7.21645e-16 -6.93889e-17
115 1 0.4 0.2 0.8 8.32667e-16 -1.83881e-16 1.44849e-16
107 1 0.6 0 0.8 -4.4925e-15 1.66533e-16 1.52656e-16
108 1 0.7 0.1 0.9 -1.17181e-15 1.05471e-15 -6.245e-17
117 1 0.6 0.2 0.8 -4.42268e-15 -7.63278e-17 9.71445e-17
109 1 0.8 0 0.8 1.11022e-16 1.73472e-16 1.45717e-16
110 1 0.9 0.1 0.9 -1.38778e-16 1.10328e-15 1.38778e-17
119 1 0.8 0.2 0.8 1.38778e-16 -1.11022e-16 -7.63278e-17
112 1 0.1 0.3 0.9 1.11022e-15 -8.8124e-16 -2.08167e-17
121 1 0 0.4 0.8 4.44089e-16 8.04912e-16 1.52656e-16
114 1 0.3 0.3 0.9 -2.76862e-15 -2.75474e-15 -2.77556e-17
122 1 0.2 0.4 0.8 -7.97973e-17 8.88178e-16 0
116 1 0.5 0.3 0.9 4.53717e-15 -6.45317e-16 -2.77556e-17
123 1 0.4 0.4 0.8 7.21645e-16 8.88178e-16 -2.77556e-17
118 1 0.7 0.3 0.9 -1.15142e-15 -7.56339e-16 6.93889e-18
124 1 0.6 0.4 0.8 -4.44089e-15 9.99201e-16 2.77556e-17
120 1 0.9 0.3 0.9 -9.71445e-17 -7.84095e-16 -2.77556e-17
125 1 0.8 0.4 0.8 1.11022e-16 8.25728e-16 1.73472e-16
126 1 0.1 0.5 0.1 1.16573e-15 8.22259e-15 1.06859e-15
131 1 0 0.6 0 1.33227e-15 -5.85643e-15 1.3739e-15
132 1 0.1 0.7 0.1 9.99201e-16 -1.40166e-15 8.60423e-16
156 1 0 0.6 0.2 1.22125e-15 -7.70911e-15 7.21645e-16
127 1 0.3 0.5 0.1 -4.7462e-15 4.35763e-15 9.71445e-16
133 1 0.2 0.6 0 9.64506e-16 -5.64999e-15 3.44169e-15
134 1 0.3 0.7 0.1 -4.68549e-15 -1.28716e-15 8.318e-16
158 1 0.2 0.6 0.2 1.89779e-15 -6.65613e-15 1.32706e-16
128 1 0.5 0.5 0.1 4.38538e-15 4.2466e-15 9.15934e-16
135 1 0.4 0.6 0 5.73977e-16 -4.71845e-15 7.28584e-16
136 1 0.5 0.7 0.1 4.34678e-15 -1.30104e-15 5.54244e-16
160 1 0.4 0.6 0.2 5.03937e-16 -6.66134e-15 1.9984e-15
129 1 0.7 0.5 0.1 -1.36002e-15 4.44089e-15 1.11022e-15
137 1 0.6 0.6 0 -4.43135e-15 -4.44089e-15 5.6205e-16
138 1 0.7 0.7 0.1 -1.0829e-15 -1.26635e-15 8.24861e-16
162 1 0.6 0.6 0.2 -4.33551e-15 -4.66294e-15 2.02616e-15
130 1 0.9 0.5 0.1 -2.77556e-17 4.64906e-15 9.02056e-16
139 1 0.8 0.6 0 -5.55112e-17 -4.63518e-15 3.747e-16
140 1 0.9 0.7 0.1 -1.66533e-16 -1.19349e-15 8.32667e-16
164 1 0.8 0.6 0.2 2.77556e-17 -6.6197e-15 2.01228e-15
141 1 0 0.8 0 3.33067e-16 8.32667e-17 2.498e-16
142 1 0.1 0.9 0.1 1.11022e-15 -3.46945e-17 8.25728e-16
166 1 0 0.8 0.2 2.22045e-16 4.16334e-17 -2.08167e-16
143 1 0.2 0.8 0 2.04697e-15 5.55112e-17 2.17968e-15
144 1 0.3 0.9 0.1 -4.68462e-15 -4.85723e-17 7.21645e-16
168 1 0.2 0.8 0.2 4.05231e-15 1.52656e-16 -1.11022e-16
145 1 0.4 0.8 0 6.97359e-16 1.249e-16 2.77556e-16
146 1 0.5 0.9 0.1 4.50161e-15 7.63278e-17 4.996e-16
170 1 0.4 0.8 0.2 6.57243e-16 2.498e-16 -2.498e-16
147 1 0.6 0.8 0 -4.51917e-15 1.52656e-16 1.73472e-16
148 1 0.7 0.9 0.1 -1.17224e-15 -1.04083e-16 7.21645e-16
172 1 0.6 0.8 0.2 -6.41241e-15 2.35922e-16 1.85268e-15
149 1 0.8 0.8 0 5.55112e-17 1.04083e-16 2.77556e-16
150 1 0.9 0.9 0.1 -1.66533e-16 -1.04083e-16 8.46545e-16
174 1 0.8 0.8 0.2 1.66533e-16 1.11022e-16 -2.84495e-16
151 1 0.1 0.5 0.3 1.05471e-15 6.30745e-15 -2.53964e-15
157 1 0.1 0.7 0.3 1.11022e-15 -1.34615e-15 -9.4369e-16
176 1 0 0.6 0.4 3.33067e-16 -4.79478e-15 6.52256e-16
152 1 0.3 0.5 0.3 -1.77636e-15 5.38458e-15 -3.52496e-15
159 1 0.3 0.7 0.3 -2.82456e-15 -1.34094e-15 -2.69836e-15
177 1 0.2 0.6 0.4 -1.31839e-16 -4.87284e-15 5.68989e-16
153 1 0.5 0.5 0.3 4.44089e-15 4.41314e-15 -2.35922e-15
161 1 0.5 0.7 0.3 6.55162e-15 -1.42421e-15 -2.55958e-15
178 1 0.4 0.6 0.4 7.63278e-16 -4.82947e-15 6.8695e-16
154 1 0.7 0.5 0.3 -1.30451e-15 6.245e-15 -2.52576e-15
163 1 0.7 0.7 0.3 -1.21431e-15 -1.41033e-15 -7.41594e-16
179 1 0.6 0.6 0.4 -4.48383e-15 -4.55191e-15 7.91034e-16
155 1 0.9 0.5 0.3 -2.35922e-16 6.52256e-15 -2.52576e-15
165 1 0.9 0.7 0.3 -1.11022e-16 -1.42247e-15 -7.49401e-16
180 1 0.8 0.6 0.4 8.32667e-17 -4.89886e-15 4.92661e-16
167 1 0.1 0.9 0.3 1.11022e-15 -9.02056e-17 -8.8124e-16
181 1 0 0.8 0.4 3.33067e-16 4.16334e-17 7.49401e-16
169 1 0.3 0.9 0.3 -2.79464e-15 0 -2.78944e-15
182 1 0.2 0.8 0.4 -3.46945e-18 1.38778e-16 8.74301e-16
171 1 0.5 0.9 0.3 6.45165e-15 9.71445e-17 -2.44249e-15
183 1 0.4 0.8 0.4 6.29271e-16 1.38778e-16 7.70217e-16
173 1 0.7 0.9 0.3 -1.14188e-15 8.32667e-17 -7.07767e-16
184 1 0.6 0.8 0.4 -4.56449e-15 2.77556e-17 9.99201e-16
175 1 0.9 0.9 0.3 -1.38778e-16 -6.93889e-17 -8.88178e-16
185 1 0.8 0.8 0.4 5.55112e-17 6.93889e-17 5.68989e-16
186 1 0.1 0.5 0.5 9.99201e-16 4.3715e-15 4.20497e-15
191 1 0.1 0.7 0.5 6.66134e-16 -1.31839e-15 4.38538e-15
201 1 0.1 0.5 0.7 9.4369e-16 4.76702e-15 -1.38084e-15
206 1 0 0.6 0.6 5.55112e-16 -4.47559e-15 -4.52416e-15
207 1 0.1 0.7 0.7 9.4369e-16 -1.36002e-15 -1.26982e-15
187 1 0.3 0.5 0.5 -1.63758e-15 3.58047e-15 5.2458e-15
192 1 0.3 0.7 0.5 -2.51925e-15 -1.28023e-15 6.30052e-15
202 1 0.3 0.5 0.7 -6.93889e-16 4.60743e-15 -1.19349e-15
208 1 0.2 0.6 0.6 7.73687e-16 -3.82507e-15 -5.26142e-15
209 1 0.3 0.7 0.7 -8.04261e-16 -1.3739e-15 -1.11022e-15
188 1 0.5 0.5 0.5 4.05231e-15 4.16334e-15 3.91354e-15
193 1 0.5 0.7 0.5 4.43525e-15 -1.419e-15 4.46865e-15
203 1 0.5 0.5 0.7 4.35763e-15 4.4964e-15 -1.05471e-15
210 1 0.4 0.6 0.6 8.97069e-16 -4.60743e-15 -4.47559e-15
211 1 0.5 0.7 0.7 4.60938e-15 -1.29931e-15 -1.22818e-15
189 1 0.7 0.5 0.5 -1.19349e-15 4.27436e-15 4.13558e-15
194 1 0.7 0.7 0.5 -1.249e-15 -1.43982e-15 4.656e-15
204 1 0.7 0.5 0.7 -1.13798e-15 4.57967e-15 -1.33227e-15
212 1 0.6 0.6 0.6 -4.20519e-15 -4.38538e-15 -4.31599e-15
213 1 0.7 0.7 0.7 -1.26787e-15 -1.31145e-15 -1.14492e-15
190 1 0.9 0.5 0.5 -1.94289e-16 4.3715e-15 4.14946e-15
195 1 0.9 0.7 0.5 1.11022e-16 -1.41553e-15 4.44089e-15
205 1 0.9 0.5 0.7 -8.32667e-17 4.92661e-15 -1.26288e-15
214 1 0.8 0.6 0.6 2.498e-16 -4.68375e-15 -4.36456e-15
215 1 0.9 0.7 0.7 0 -1.31839e-15 -1.29063e-15
196 1 0.1 0.9 0.5 8.32667e-16 1.52656e-16 4.51722e-15
216 1 0 0.8 0.6 3.33067e-16 1.80411e-16 -4.53804e-15
217 1 0.1 0.9 0.7 8.32667e-16 -9.71445e-17 -1.4988e-15
197 1 0.3 0.9 0.5 -2.61033e-15 1.249e-16 6.32827e-15
218 1 0.2 0.8 0.6 1.89085e-15 1.11022e-16 -6.46184e-15
219 1 0.3 0.9 0.7 -7.62194e-16 4.85723e-17 -1.26288e-15
198 1 0.5 0.9 0.5 4.44263e-15 6.93889e-17 4.32987e-15
220 1 0.4 0.8 0.6 8.6953e-16 1.38778e-16 -4.51722e-15
221 1 0.5 0.9 0.7 4.51093e-15 7.63278e-17 -1.29063e-15
199 1 0.7 0.9 0.5 -1.41597e-15 1.52656e-16 4.41314e-15
222 1 0.6 0.8 0.6 -4.53305e-15 2.35922e-16 -4.57273e-15
223 1 0.7 0.9 0.7 -1.1499e-15 2.08167e-17 -1.17961e-15
200 1 0.9 0.9 0.5 -6.93889e-17 9.02056e-17 4.56579e-15
224 1 0.8 0.8 0.6 8.32667e-17 -4.16334e-17 -4.35069e-15
225 1 0.9 0.9 0.7 -1.11022e-16 -5.55112e-17 -1.42941e-15
226 1 0.1 0.5 0.9 8.32667e-16 4.64212e-15 1.38778e-17
231 1 0 0.6 0.8 3.33067e-16 -4.996e-15 2.35922e-16
232 1 0.1 0.7 0.9 9.4369e-16 -1.249e-15 -9.71445e-17
227 1 0.3 0.5 0.9 -8.04912e-16 4.4964e-15 2.22045e-16
233 1 0.2 0.6 0.8 -9.36751e-17 -4.65079e-15 1.94289e-16
234 1 0.3 0.7 0.9 -7.7759e-16 -1.36349e-15 1.46584e-16
228 1 0.5 0.5 0.9 4.38538e-15 4.44089e-15 5.55112e-17
235 1 0.4 0.6 0.8 6.42715e-16 -4.55191e-15 3.88578e-16
236 1 0.5 0.7 0.9 4.51158e-15 -1.33574e-15 6.50521e-17
229 1 0.7 0.5 0.9 -1.38778e-15 4.63518e-15 5.55112e-17
237 1 0.6 0.6 0.8 -4.37411e-15 -4.71845e-15 4.996e-16
238 1 0.7 0.7 0.9 -1.1588e-15 -1.23165e-15 3.29597e-17
230 1 0.9 0.5 0.9 2.77556e-17 4.64906e-15 -1.249e-16
239 1 0.8 0.6 0.8 -5.55112e-17 -4.63518e-15 1.66533e-16
240 1 0.9 0.7 0.9 -1.11022e-16 -1.19349e-15 -8.32667e-17
241 1 0 0.8 0.8 3.33067e-16 1.04083e-16 8.32667e-17
242 1 0.1 0.9 0.9 1.11022e-15 -4.85723e-17 -6.245e-17
243 1 0.2 0.8 0.8 4.85723e-17 5.55112e-17 1.249e-16
244 1 0.3 0.9 0.9 -8.19657e-16 -1.38778e-17 -5.55112e-17
245 1 0.4 0.8 0.8 6.9454e-16 5.55112e-17 8.32667e-17
246 1 0.5 0.9 0.9 4.58661e-15 4.16334e-17 1.38778e-17
247 1 0.6 0.8 0.8 -4.3316e-15 1.66533e-16 1.45717e-16
248 1 0.7 0.9 0.9 -1.20693e-15 -8.32667e-17 1.38778e-17
249 1 0.8 0.8 0.8 8.32667e-17 3.46945e-17 -4.16334e-17
250 1 0.9 0.9 0.9 -1.52656e-16 -1.11022e-16 -1.52656e-16
