ITEM: TIMESTEP
0
ITEM: NUMBER OF ATOMS
500
ITEM: BOX BOUNDS pp pp pp
0.0000000000000000e+00 2.4620000000000001e+01
0.0000000000000000e+00 2.4620000000000001e+01
0.0000000000000000e+00 2.4620000000000001e+01
id type xs ys zs fx fy fz
1 1 0 0 0 4.44089e-16 3.747e-16 1.73472e-16
2 1 0.1 0.1 0 1.11022e-16 1.32706e-16 -3.26128e-16
3 1 0.1 0 0.1 1.94289e-16 -8.32667e-17 1.7087e-16
4 1 0 0.1 0.1 -1.66533e-16 1.80411e-16 1.94289e-16
5 1 0.2 0 0 1.16226e-15 1.2837e-16 1.20997e-16
8 1 0.2 0.1 0.1 1.08767e-15 1.81279e-16 2.6975e-16
11 1 0 0.2 0 2.498e-16 1.17267e-15 9.02056e-17
13 1 0.1 0.2 0.1 2.35922e-16 1.11716e-15 3.06612e-16
15 1 0.2 0.2 0 1.11022e-15 1.21431e-15 3.46945e-18
51 1 0 0 0.2 1.38778e-16 4.85723e-17 1.22125e-15
52 1 0.1 0.1 0.2 3.60822e-16 2.1684e-16 1.02002e-15
55 1 0.2 0 0.2 1.14752e-15 4.64039e-17 1.2117e-15
61 1 0 0.2 0.2 -5.55112e-17 1.14492e-15 1.17961e-15
65 1 0.2 0.2 0.2 1.17441e-15 1.23295e-15 1.2425e-15
6 1 0.3 0.1 0 -1.27676e-15 1.92554e-16 2.28983e-16
7 1 0.3 0 0.1 -1.34615e-15 2.70617e-16 2.94903e-16
9 1 0.4 0 0 8.32667e-17 6.59195e-16 6.66134e-16
10 1 0.4 0.1 0.1 2.77556e-17 1.38778e-16 2.22045e-16
17 1 0.3 0.2 0.1 -1.20563e-15 1.12497e-15 2.88398e-16
19 1 0.4 0.2 0 4.77049e-17 1.04474e-15 4.92661e-16
56 1 0.3 0.1 0.2 -1.16053e-15 1.75207e-16 1.16226e-15
59 1 0.4 0 0.2 1.249e-16 4.23273e-16 1.08247e-15
69 1 0.4 0.2 0.2 -8.67362e-18 1.11716e-15 1.23339e-15
12 1 0.1 0.3 0 2.22045e-16 -1.33053e-15 2.42861e-16
14 1 0 0.3 0.1 1.66533e-16 -1.31839e-15 2.63678e-16
18 1 0.2 0.3 0.1 1.10155e-15 -1.1692e-15 2.08167e-16
21 1 0 0.4 0 6.66134e-16 2.28983e-16 6.52256e-16
23 1 0.1 0.4 0.1 1.38778e-16 2.22045e-16 2.67581e-16
25 1 0.2 0.4 0 1.03129e-15 1.30104e-16 4.44089e-16
62 1 0.1 0.3 0.2 1.80411e-16 -1.16747e-15 1.23512e-15
71 1 0 0.4 0.2 4.71845e-16 1.249e-16 1.07553e-15
75 1 0.2 0.4 0.2 1.11933e-15 1.50487e-16 1.15402e-15
16 1 0.3 0.3 0 -1.72085e-15 -1.57166e-15 4.57967e-16
20 1 0.4 0.3 0.1 0 -1.51441e-15 2.35922e-16
27 1 0.3 0.4 0.1 -1.76205e-15 1.07553e-16 2.52836e-16
29 1 0.4 0.4 0 -2.77556e-17 1.249e-16 1.00787e-15
66 1 0.3 0.3 0.2 -1.35308e-15 -1.249e-15 1.20433e-15
79 1 0.4 0.4 0.2 -2.08167e-17 9.71445e-17 1.09895e-15
22 1 0.1 0.5 0 1.38778e-16 3.05702e-15 5.6205e-16
24 1 0 0.5 0.1 5.55112e-16 3.00411e-15 2.77556e-16
28 1 0.2 0.5 0.1 7.78023e-16 2.94296e-15 2.04697e-16
31 1 0 0.6 0 8.04912e-16 -2.96985e-15 7.18176e-16
32 1 0.1 0.7 0 1.94289e-16 -1.04083e-16 4.55365e-16
33 1 0.1 0.6 0.1 2.77556e-16 -2.93559e-15 1.9082e-16
34 1 0 0.7 0.1 5.27356e-16 -1.0842e-16 3.33067e-16
35 1 0.2 0.6 0 7.37257e-16 -2.76558e-15 5.75061e-16
38 1 0.2 0.7 0.1 1.04691e-15 -2.09902e-16 2.71484e-16
72 1 0.1 0.5 0.2 1.52656e-16 2.7851e-15 7.35523e-16
81 1 0 0.6 0.2 4.71845e-16 -2.66454e-15 8.76903e-16
82 1 0.1 0.7 0.2 2.28983e-16 -4.85723e-17 1.23165e-15
85 1 0.2 0.6 0.2 7.1991e-16 -2.46287e-15 7.62411e-16
26 1 0.3 0.5 0 -1.69309e-15 2.73045e-15 6.41848e-16
30 1 0.4 0.5 0.1 -6.93889e-18 3.03837e-15 2.35922e-16
36 1 0.3 0.7 0 -1.83881e-15 -2.38524e-16 6.73073e-16
37 1 0.3 0.6 0.1 -1.37867e-15 -2.65716e-15 2.73219e-16
39 1 0.4 0.6 0 -4.85723e-17 -2.9074e-15 1.10675e-15
40 1 0.4 0.7 0.1 -6.93889e-17 -1.42247e-16 2.35922e-16
76 1 0.3 0.5 0.2 -1.38778e-15 2.48065e-15 7.68482e-16
86 1 0.3 0.7 0.2 -1.75034e-15 -1.0018e-16 1.06859e-15
89 1 0.4 0.6 0.2 -9.36751e-17 -2.73392e-15 7.58942e-16
41 1 0 0.8 0 7.49401e-16 1.38778e-17 6.12357e-16
42 1 0.1 0.9 0 8.32667e-17 -3.05311e-16 4.2067e-16
43 1 0.1 0.8 0.1 1.38778e-16 -9.62772e-17 2.74086e-16
44 1 0 0.9 0.1 4.44089e-16 -2.498e-16 1.80411e-16
45 1 0.2 0.8 0 1.07813e-15 -1.02349e-16 5.3256e-16
48 1 0.2 0.9 0.1 1.10328e-15 -2.63678e-16 3.06179e-16
91 1 0 0.8 0.2 4.71845e-16 -1.38778e-16 1.14665e-15
92 1 0.1 0.9 0.2 3.19189e-16 -2.63678e-16 1.05124e-15
95 1 0.2 0.8 0.2 1.07379e-15 7.80626e-18 1.12237e-15
46 1 0.3 0.9 0 -1.81799e-15 -1.96024e-16 7.21645e-16
47 1 0.3 0.8 0.1 -1.60982e-15 -2.08167e-17 3.32633e-16
49 1 0.4 0.8 0 2.08167e-17 6.93889e-18 1.0339e-15
50 1 0.4 0.9 0.1 6.93889e-17 -1.11022e-16 2.35922e-16
96 1 0.3 0.9 0.2 -1.61112e-15 -1.52656e-16 1.14665e-15
99 1 0.4 0.8 0.2 0 2.77556e-17 9.57567e-16
53 1 0.1 0 0.3 2.498e-16 1.73472e-16 -1.36696e-15
54 1 0 0.1 0.3 2.22045e-16 2.70617e-16 -1.29063e-15
58 1 0.2 0.1 0.3 1.07032e-15 1.4962e-16 -1.13364e-15
63 1 0.1 0.2 0.3 1.80411e-16 1.15186e-15 -1.13624e-15
101 1 0 0 0.4 6.66134e-16 8.18789e-16 6.245e-17
102 1 0.1 0.1 0.4 1.66533e-16 1.43982e-16 2.08167e-17
103 1 0.2 0 0.4 1.09895e-15 4.90493e-16 -9.19403e-17
106 1 0 0.2 0.4 4.71845e-16 1.04777e-15 -7.63278e-17
108 1 0.2 0.2 0.4 1.09027e-15 1.14166e-15 -1.18829e-16
57 1 0.3 0 0.3 -1.6237e-15 4.3715e-16 -1.63584e-15
60 1 0.4 0.1 0.3 2.77556e-17 1.11022e-16 -1.66187e-15
67 1 0.3 0.2 0.3 -1.38778e-15 1.07509e-15 -1.34615e-15
104 1 0.3 0.1 0.4 -1.58901e-15 1.14492e-16 -4.85723e-17
105 1 0.4 0 0.4 2.08167e-17 1.00614e-15 -4.16334e-17
110 1 0.4 0.2 0.4 1.38778e-17 1.12237e-15 -3.46945e-17
64 1 0 0.3 0.3 3.88578e-16 -1.51268e-15 -1.65146e-15
68 1 0.2 0.3 0.3 1.03043e-15 -1.37954e-15 -1.38257e-15
73 1 0.1 0.4 0.3 5.55112e-17 9.36751e-17 -1.71044e-15
107 1 0.1 0.3 0.4 1.94289e-16 -1.58554e-15 -1.8735e-16
111 1 0 0.4 0.4 1.02696e-15 1.11022e-16 -3.81639e-17
113 1 0.2 0.4 0.4 1.07379e-15 8.97719e-17 -7.71952e-17
70 1 0.4 0.3 0.3 4.85723e-17 -1.80411e-15 -1.91167e-15
77 1 0.3 0.4 0.3 -1.84575e-15 7.28584e-17 -1.84575e-15
109 1 0.3 0.3 0.4 -1.84575e-15 -1.9082e-15 -1.30104e-16
115 1 0.4 0.4 0.4 3.46945e-17 1.45717e-16 0
74 1 0 0.5 0.3 6.38378e-16 2.79941e-15 -1.63064e-15
78 1 0.2 0.5 0.3 7.70217e-16 2.50429e-15 -1.40252e-15
83 1 0.1 0.6 0.3 5.55112e-17 -2.59862e-15 -1.51875e-15
84 1 0 0.7 0.3 5.82867e-16 -1.66533e-16 -1.91513e-15
88 1 0.2 0.7 0.3 1.02696e-15 -1.2425e-16 -1.72865e-15
112 1 0.1 0.5 0.4 1.11022e-16 2.99023e-15 -7.63278e-17
116 1 0 0.6 0.4 9.99201e-16 -2.94209e-15 -1.52656e-16
117 1 0.1 0.7 0.4 1.31839e-16 -1.83881e-16 -1.78677e-16
118 1 0.2 0.6 0.4 8.05779e-16 -2.77773e-15 -1.45717e-16
80 1 0.4 0.5 0.3 -6.245e-17 2.67147e-15 -1.89779e-15
87 1 0.3 0.6 0.3 -1.59595e-15 -2.35749e-15 -1.4988e-15
90 1 0.4 0.7 0.3 -8.32667e-17 -2.40259e-16 -2.17361e-15
114 1 0.3 0.5 0.4 -1.83187e-15 2.78944e-15 -5.89806e-17
119 1 0.3 0.7 0.4 -2.16667e-15 -2.55872e-16 -1.70003e-16
120 1 0.4 0.6 0.4 2.08167e-17 -3.01148e-15 -9.71445e-17
93 1 0.1 0.8 0.3 2.498e-16 -9.19403e-17 -1.66013e-15
94 1 0 0.9 0.3 6.93889e-16 -1.94289e-16 -1.84575e-15
98 1 0.2 0.9 0.3 1.05992e-15 -3.1225e-16 -1.6211e-15
121 1 0 0.8 0.4 9.4369e-16 -9.71445e-17 -6.41848e-17
122 1 0.1 0.9 0.4 1.38778e-16 -1.11022e-16 -4.68375e-17
123 1 0.2 0.8 0.4 1.11716e-15 9.54098e-18 -2.50668e-16
97 1 0.3 0.8 0.3 -1.91513e-15 -1.38778e-17 -1.91513e-15
100 1 0.4 0.9 0.3 -6.93889e-18 -1.04083e-16 -2.13718e-15
124 1 0.3 0.9 0.4 -2.11636e-15 -2.94903e-17 -6.76542e-17
125 1 0.4 0.8 0.4 -3.46945e-18 2.08167e-17 0
126 1 0.1 0 0.5 1.38778e-16 5.06539e-16 3.09822e-15
127 1 0 0.1 0.5 4.996e-16 1.52656e-16 3.12944e-15
129 1 0.2 0.1 0.5 7.16441e-16 2.27682e-16 2.84191e-15
131 1 0.1 0.2 0.5 1.94289e-16 6.93889e-16 2.86923e-15
151 1 0 0 0.6 6.93889e-16 7.67615e-16 -2.92821e-15
152 1 0.1 0.1 0.6 1.38778e-16 2.09902e-16 -2.7903e-15
153 1 0.1 0 0.7 9.71445e-17 3.60822e-16 -8.32667e-17
154 1 0 0.1 0.7 2.77556e-16 1.31839e-16 -1.9082e-17
155 1 0.2 0 0.6 7.50702e-16 6.56593e-16 -2.52402e-15
158 1 0.2 0.1 0.7 1.17137e-15 2.70617e-16 -6.50521e-17
161 1 0 0.2 0.6 4.996e-16 7.53737e-16 -2.52576e-15
163 1 0.1 0.2 0.7 1.80411e-16 1.04777e-15 -5.55112e-17
165 1 0.2 0.2 0.6 8.04912e-16 7.83228e-16 -2.05044e-15
128 1 0.3 0 0.5 -1.56819e-15 6.55725e-16 2.75821e-15
130 1 0.4 0.1 0.5 -6.93889e-17 2.22045e-16 3.20707e-15
133 1 0.3 0.2 0.5 -1.36002e-15 7.38125e-16 2.58821e-15
156 1 0.3 0.1 0.6 -1.38756e-15 3.2049e-16 -2.55612e-15
157 1 0.3 0 0.7 -1.83187e-15 7.63278e-16 -1.37911e-16
159 1 0.4 0 0.6 -6.59195e-17 1.0391e-15 -2.83107e-15
160 1 0.4 0.1 0.7 -1.04083e-16 2.91434e-16 -9.02056e-17
167 1 0.3 0.2 0.7 -1.65753e-15 1.1189e-15 -9.19403e-17
169 1 0.4 0.2 0.6 -1.56125e-16 7.38992e-16 -2.45637e-15
132 1 0 0.3 0.5 8.04912e-16 -1.4988e-15 2.82586e-15
134 1 0.2 0.3 0.5 6.76542e-16 -1.27979e-15 2.6151e-15
136 1 0.1 0.4 0.5 2.35922e-16 1.11022e-16 3.06699e-15
162 1 0.1 0.3 0.6 2.22045e-16 -1.27242e-15 -2.35966e-15
164 1 0 0.3 0.7 7.21645e-16 -1.76248e-15 3.46945e-17
168 1 0.2 0.3 0.7 1.07813e-15 -1.55822e-15 -3.98986e-17
171 1 0 0.4 0.6 1.16573e-15 1.52656e-16 -2.84495e-15
173 1 0.1 0.4 0.7 1.94289e-16 2.08167e-16 -9.71445e-17
175 1 0.2 0.4 0.6 7.41594e-16 1.40513e-16 -2.41387e-15
135 1 0.4 0.3 0.5 -8.32667e-17 -1.83187e-15 2.88658e-15
138 1 0.3 0.4 0.5 -1.8735e-15 8.23994e-17 2.74086e-15
166 1 0.3 0.3 0.6 -1.63758e-15 -1.56125e-15 -2.14585e-15
170 1 0.4 0.3 0.7 -1.31839e-16 -2.06085e-15 -9.02056e-17
177 1 0.3 0.4 0.7 -2.13371e-15 1.09288e-16 -6.41848e-17
179 1 0.4 0.4 0.6 -9.71445e-17 1.38778e-16 -2.65066e-15
137 1 0 0.5 0.5 1.02696e-15 2.99543e-15 3.14679e-15
139 1 0.2 0.5 0.5 4.51028e-16 2.83476e-15 2.91347e-15
141 1 0.1 0.6 0.5 3.05311e-16 -3.00628e-15 3.1225e-15
142 1 0 0.7 0.5 8.60423e-16 -2.42861e-16 3.10169e-15
144 1 0.2 0.7 0.5 7.83228e-16 -2.91e-16 2.88311e-15
172 1 0.1 0.5 0.6 2.22045e-16 2.97418e-15 -2.80158e-15
174 1 0 0.5 0.7 9.15934e-16 2.98503e-15 -1.70003e-16
178 1 0.2 0.5 0.7 8.18789e-16 2.78163e-15 -1.83881e-16
181 1 0 0.6 0.6 9.99201e-16 -2.94209e-15 -2.84495e-15
182 1 0.1 0.7 0.6 1.94289e-16 -2.63678e-16 -2.6563e-15
183 1 0.1 0.6 0.7 1.66533e-16 -2.92474e-15 -1.8735e-16
184 1 0 0.7 0.7 8.60423e-16 -1.38778e-16 -1.17961e-16
185 1 0.2 0.6 0.6 5.36897e-16 -2.79204e-15 -2.46938e-15
188 1 0.2 0.7 0.7 1.18091e-15 -1.11022e-16 -1.85182e-16
140 1 0.4 0.5 0.5 -4.85723e-17 3.08781e-15 3.11556e-15
143 1 0.3 0.6 0.5 -1.63758e-15 -2.73739e-15 2.81025e-15
145 1 0.4 0.7 0.5 2.68882e-17 -2.72352e-16 3.09301e-15
176 1 0.3 0.5 0.6 -1.59595e-15 2.85189e-15 -2.46461e-15
180 1 0.4 0.5 0.7 -9.02056e-17 3.10862e-15 -1.8735e-16
186 1 0.3 0.7 0.6 -1.89432e-15 -2.48933e-16 -2.35272e-15
187 1 0.3 0.6 0.7 -1.90386e-15 -2.7079e-15 -5.20417e-17
189 1 0.4 0.6 0.6 -1.38778e-17 -3.05311e-15 -2.80331e-15
190 1 0.4 0.7 0.7 -1.38778e-17 -1.21431e-16 -5.20417e-17
146 1 0.1 0.8 0.5 1.94289e-16 -6.93889e-18 3.0323e-15
147 1 0 0.9 0.5 8.60423e-16 6.93889e-18 3.02536e-15
149 1 0.2 0.9 0.5 7.59809e-16 -2.29851e-16 2.76255e-15
191 1 0 0.8 0.6 8.32667e-16 2.77556e-17 -2.70617e-15
192 1 0.1 0.9 0.6 1.66533e-16 6.93889e-17 -2.76862e-15
193 1 0.1 0.8 0.7 1.52656e-16 -9.28077e-17 -1.04083e-16
194 1 0 0.9 0.7 8.88178e-16 -8.32667e-17 1.38778e-17
195 1 0.2 0.8 0.6 7.81493e-16 4.25007e-17 -2.32106e-15
198 1 0.2 0.9 0.7 1.05601e-15 -1.85182e-16 -1.59161e-16
148 1 0.3 0.8 0.5 -1.8735e-15 -2.08167e-17 2.91434e-15
150 1 0.4 0.9 0.5 0 -8.32667e-17 3.08781e-15
196 1 0.3 0.9 0.6 -1.77983e-15 -1.07987e-16 -2.46244e-15
197 1 0.3 0.8 0.7 -2.1233e-15 -4.16334e-17 -1.09288e-16
199 1 0.4 0.8 0.6 -5.20417e-17 4.68375e-17 -2.72005e-15
200 1 0.4 0.9 0.7 -4.85723e-17 -1.66533e-16 -4.94396e-17
201 1 0 0 0.8 6.93889e-16 6.97359e-16 4.16334e-17
202 1 0.1 0.1 0.8 5.55112e-17 1.76942e-16 -1.38778e-16
203 1 0.1 0 0.9 -2.77556e-17 4.51028e-16 -3.53884e-16
204 1 0 0.1 0.9 3.88578e-16 4.85723e-17 -3.20924e-16
205 1 0.2 0 0.8 9.90527e-16 4.62304e-16 -3.72966e-17
208 1 0.2 0.1 0.9 1.09027e-15 2.29417e-16 -2.35922e-16
211 1 0 0.2 0.8 4.71845e-16 1.09635e-15 0
213 1 0.1 0.2 0.9 1.45717e-16 1.09635e-15 -3.62557e-16
215 1 0.2 0.2 0.8 1.06685e-15 1.09179e-15 -9.45424e-17
206 1 0.3 0.1 0.8 -1.65146e-15 2.23779e-16 -1.11022e-16
207 1 0.3 0 0.9 -1.76248e-15 5.86337e-16 -1.96024e-16
209 1 0.4 0 0.8 -1.31839e-16 9.85323e-16 -1.04083e-17
210 1 0.4 0.1 0.9 9.02056e-17 1.59595e-16 -1.249e-16
217 1 0.3 0.2 0.9 -1.67488e-15 1.13017e-15 -2.60209e-16
219 1 0.4 0.2 0.8 -1.58727e-16 9.94864e-16 -1.05818e-16
212 1 0.1 0.3 0.8 1.94289e-16 -1.6237e-15 3.38271e-17
214 1 0 0.3 0.9 7.21645e-16 -1.7486e-15 -3.36536e-16
218 1 0.2 0.3 0.9 1.04604e-15 -1.51441e-15 -3.64292e-16
221 1 0 0.4 0.8 9.71445e-16 1.38778e-16 2.77556e-17
223 1 0.1 0.4 0.9 1.38778e-16 8.32667e-17 -3.08781e-16
225 1 0.2 0.4 0.8 1.07379e-15 1.57643e-16 -8.41341e-17
216 1 0.3 0.3 0.8 -1.85962e-15 -1.79023e-15 -8.32667e-17
220 1 0.4 0.3 0.9 -3.46945e-17 -2.07473e-15 -1.80411e-16
227 1 0.3 0.4 0.9 -2.11636e-15 1.66533e-16 -3.01842e-16
229 1 0.4 0.4 0.8 -2.08167e-17 4.16334e-17 3.81639e-17
222 1 0.1 0.5 0.8 1.38778e-16 2.9525e-15 -2.86229e-17
224 1 0 0.5 0.9 9.4369e-16 2.959e-15 -2.35922e-16
228 1 0.2 0.5 0.9 6.87818e-16 2.78315e-15 -2.86229e-16
231 1 0 0.6 0.8 9.99201e-16 -2.9074e-15 4.16334e-17
232 1 0.1 0.7 0.8 1.38778e-16 -2.39392e-16 5.72459e-17
233 1 0.1 0.6 0.9 1.249e-16 -2.94383e-15 -3.60822e-16
234 1 0 0.7 0.9 9.71445e-16 -1.31839e-16 -1.94289e-16
235 1 0.2 0.6 0.8 8.318e-16 -2.72438e-15 -9.19403e-17
238 1 0.2 0.7 0.9 1.10502e-15 -2.0383e-16 -1.80411e-16
226 1 0.3 0.5 0.8 -1.8735e-15 2.72005e-15 -1.83881e-16
230 1 0.4 0.5 0.9 4.85723e-17 3.03924e-15 -2.08167e-16
236 1 0.3 0.7 0.8 -2.06085e-15 -1.44849e-16 -4.85723e-17
237 1 0.3 0.6 0.9 -1.80758e-15 -2.583e-15 -2.9577e-16
239 1 0.4 0.6 0.8 -1.38778e-17 -2.76168e-15 2.42861e-17
240 1 0.4 0.7 0.9 6.245e-17 -1.72605e-16 -2.08167e-16
241 1 0 0.8 0.8 8.88178e-16 -3.46945e-17 5.55112e-17
242 1 0.1 0.9 0.8 8.32667e-17 -1.63064e-16 6.59195e-17
243 1 0.1 0.8 0.9 8.32667e-17 -2.25514e-17 -2.84495e-16
244 1 0 0.9 0.9 9.4369e-16 -4.85723e-17 -1.94289e-16
245 1 0.2 0.8 0.8 1.0018e-15 -4.72712e-17 -1.9082e-17
248 1 0.2 0.9 0.9 1.07119e-15 -2.55872e-16 -2.25514e-16
246 1 0.3 0.9 0.8 -2.06779e-15 -2.02963e-16 -9.71445e-17
247 1 0.3 0.8 0.9 -2.01922e-15 4.16334e-17 -2.498e-16
249 1 0.4 0.8 0.8 -2.08167e-17 -4.85723e-17 1.04083e-16
250 1 0.4 0.9 0.9 -4.16334e-17 -2.01228e-16 -1.80411e-16
251 1 0.5 0.1 0 3.05311e-15 1.80411e-16 4.87024e-16
252 1 0.5 0 0.1 3.08087e-15 3.62557e-16 2.63678e-16
253 1 0.6 0 0 -2.94209e-15 7.49401e-16 7.26849e-16
254 1 0.7 0.1 0 -1.91687e-16 2.23346e-16 4.39536e-16
255 1 0.7 0 0.1 -1.23599e-16 4.87457e-16 2.28983e-16
256 1 0.6 0.1 0.1 -2.85882e-15 1.82146e-16 2.51969e-16
262 1 0.5 0.2 0.1 2.88658e-15 6.5746e-16 1.66533e-16
263 1 0.6 0.2 0 -2.63678e-15 7.5287e-16 5.12611e-16
265 1 0.7 0.2 0.1 -1.20563e-16 1.14752e-15 3.19189e-16
301 1 0.5 0.1 0.2 2.83107e-15 2.08167e-17 7.54605e-16
303 1 0.6 0 0.2 -2.69229e-15 5.16948e-16 7.35523e-16
304 1 0.7 0.1 0.2 -1.14058e-16 3.4998e-16 1.06512e-15
313 1 0.6 0.2 0.2 -2.32453e-15 8.25728e-16 8.74301e-16
257 1 0.8 0 0 0 7.21645e-16 5.82867e-16
258 1 0.9 0.1 0 -2.35922e-16 1.8735e-16 4.2414e-16
259 1 0.9 0 0.1 -2.39392e-16 4.51028e-16 2.22045e-16
260 1 0.8 0.1 0.1 -5.65954e-17 2.23779e-16 2.18141e-16
267 1 0.8 0.2 0 0 1.02479e-15 5.34295e-16
269 1 0.9 0.2 0.1 -2.42861e-16 1.03173e-15 2.35922e-16
307 1 0.8 0 0.2 4.16334e-17 4.47559e-16 1.02262e-15
308 1 0.9 0.1 0.2 -2.22045e-16 3.1225e-16 1.03736e-15
317 1 0.8 0.2 0.2 -1.12757e-16 1.10068e-15 1.11369e-15
261 1 0.5 0.3 0 2.83107e-15 -1.57513e-15 6.40113e-16
264 1 0.7 0.3 0 -1.21431e-16 -1.78503e-15 8.17055e-16
266 1 0.6 0.3 0.1 -2.52576e-15 -1.29757e-15 1.71304e-16
272 1 0.5 0.4 0.1 3.16414e-15 1.5439e-16 3.46945e-16
273 1 0.6 0.4 0 -2.90046e-15 -1.04083e-17 1.00267e-15
275 1 0.7 0.4 0.1 -8.58688e-17 1.77375e-16 2.28983e-16
311 1 0.5 0.3 0.2 2.52576e-15 -1.26982e-15 9.01623e-16
314 1 0.7 0.3 0.2 -1.35742e-16 -1.60072e-15 1.13451e-15
323 1 0.6 0.4 0.2 -2.54657e-15 6.59195e-17 8.70831e-16
268 1 0.9 0.3 0 -1.11022e-16 -1.66533e-15 7.56339e-16
270 1 0.8 0.3 0.1 -1.38778e-17 -1.51268e-15 3.26128e-16
277 1 0.8 0.4 0 6.93889e-17 1.53523e-16 1.01308e-15
279 1 0.9 0.4 0.1 -9.71445e-17 8.32667e-17 3.05311e-16
318 1 0.9 0.3 0.2 -1.11022e-16 -1.52656e-15 1.11022e-15
327 1 0.8 0.4 0.2 -3.1225e-17 7.97973e-17 1.11022e-15
271 1 0.5 0.5 0 3.10862e-15 2.98633e-15 8.84709e-16
274 1 0.7 0.5 0 -1.38778e-16 2.97093e-15 1.12237e-15
276 1 0.6 0.5 0.1 -2.72005e-15 2.96898e-15 2.24647e-16
281 1 0.5 0.7 0 3.02536e-15 -1.11022e-16 8.88178e-16
282 1 0.5 0.6 0.1 2.94209e-15 -2.8727e-15 3.19189e-16
283 1 0.6 0.6 0 -2.88658e-15 -2.90306e-15 1.00614e-15
284 1 0.7 0.7 0 -2.74086e-16 -1.75641e-16 9.80119e-16
285 1 0.7 0.6 0.1 -1.88217e-16 -2.93775e-15 3.1225e-16
286 1 0.6 0.7 0.1 -2.73392e-15 -8.32667e-17 2.59775e-16
321 1 0.5 0.5 0.2 2.80331e-15 2.68145e-15 5.63785e-16
324 1 0.7 0.5 0.2 -1.15359e-16 2.80093e-15 7.77156e-16
331 1 0.5 0.7 0.2 2.83107e-15 -1.94289e-16 6.66134e-16
333 1 0.6 0.6 0.2 -2.44249e-15 -2.62203e-15 6.03684e-16
334 1 0.7 0.7 0.2 -4.94396e-17 -4.03323e-16 1.05601e-15
278 1 0.9 0.5 0 -8.32667e-17 2.97679e-15 1.08247e-15
280 1 0.8 0.5 0.1 -1.11022e-16 3.06005e-15 3.22659e-16
287 1 0.8 0.6 0 -4.16334e-17 -2.93862e-15 1.02696e-15
288 1 0.9 0.7 0 -2.08167e-17 -2.41127e-16 9.50628e-16
289 1 0.9 0.6 0.1 -1.38778e-17 -2.90046e-15 1.94289e-16
290 1 0.8 0.7 0.1 3.64292e-17 -1.53523e-16 4.89192e-16
328 1 0.9 0.5 0.2 -1.249e-16 2.84495e-15 6.8695e-16
337 1 0.8 0.6 0.2 0 -2.50234e-15 8.70831e-16
338 1 0.9 0.7 0.2 -7.63278e-17 -2.18141e-16 1.19696e-15
291 1 0.5 0.9 0 3.02536e-15 -2.77556e-17 9.22873e-16
292 1 0.5 0.8 0.1 3.05311e-15 -1.38778e-17 1.80411e-16
293 1 0.6 0.8 0 -2.94209e-15 7.45931e-17 9.41955e-16
294 1 0.7 0.9 0 -2.23779e-16 -2.10769e-16 8.21825e-16
295 1 0.7 0.8 0.1 -1.65666e-16 -6.245e-17 3.21791e-16
296 1 0.6 0.9 0.1 -2.88658e-15 -6.93889e-17 1.59595e-16
341 1 0.5 0.9 0.2 2.77556e-15 -9.71445e-17 7.14706e-16
343 1 0.6 0.8 0.2 -2.52576e-15 1.73472e-17 7.21645e-16
344 1 0.7 0.9 0.2 -9.36751e-17 -2.15539e-16 1.04214e-15
297 1 0.8 0.8 0 -5.55112e-17 -6.245e-17 1.01308e-15
298 1 0.9 0.9 0 -6.93889e-18 -5.55112e-17 8.18789e-16
299 1 0.9 0.8 0.1 -1.04083e-16 -3.64292e-17 3.05311e-16
300 1 0.8 0.9 0.1 3.46945e-17 -1.76942e-16 3.57353e-16
347 1 0.8 0.8 0.2 -2.08167e-17 -3.46945e-17 1.00354e-15
348 1 0.9 0.9 0.2 -1.31839e-16 -3.05311e-16 1.02262e-15
302 1 0.5 0 0.3 2.7478e-15 7.00828e-16 -1.61676e-15
305 1 0.7 0 0.3 -8.80372e-17 8.44377e-16 -2.00708e-15
306 1 0.6 0.1 0.3 -2.66454e-15 1.37043e-16 -1.42161e-15
312 1 0.5 0.2 0.3 2.55351e-15 8.04912e-16 -1.36002e-15
315 1 0.7 0.2 0.3 -2.02963e-16 1.16725e-15 -1.69049e-15
351 1 0.5 0.1 0.4 3.21965e-15 2.01228e-16 -1.19696e-16
352 1 0.6 0 0.4 -2.9976e-15 9.67976e-16 -8.32667e-17
353 1 0.7 0.1 0.4 -1.3314e-16 2.5327e-16 -2.34188e-17
357 1 0.6 0.2 0.4 -2.69229e-15 7.84095e-16 -2.94903e-16
309 1 0.9 0 0.3 -1.80411e-16 7.49401e-16 -1.89432e-15
310 1 0.8 0.1 0.3 -2.77556e-17 2.34188e-16 -1.75554e-15
319 1 0.9 0.2 0.3 -1.92554e-16 1.02175e-15 -1.71044e-15
354 1 0.8 0 0.4 1.11022e-16 1.02349e-15 -6.93889e-18
355 1 0.9 0.1 0.4 -6.93889e-17 1.17961e-16 -2.77556e-17
359 1 0.8 0.2 0.4 1.47451e-17 1.05558e-15 -2.94903e-17
316 1 0.6 0.3 0.3 -2.27596e-15 -1.60635e-15 -1.63151e-15
322 1 0.5 0.4 0.3 2.77556e-15 9.02056e-17 -1.95677e-15
325 1 0.7 0.4 0.3 -5.72459e-17 6.72205e-17 -2.18575e-15
356 1 0.5 0.3 0.4 2.83107e-15 -1.81105e-15 -1.49186e-16
358 1 0.7 0.3 0.4 -1.7087e-16 -2.02442e-15 -1.63931e-16
362 1 0.6 0.4 0.4 -2.84495e-15 9.02056e-17 -1.249e-16
320 1 0.8 0.3 0.3 -4.16334e-17 -1.74166e-15 -1.89779e-15
329 1 0.9 0.4 0.3 -2.22045e-16 6.93889e-17 -2.10769e-15
360 1 0.9 0.3 0.4 -1.11022e-16 -1.92207e-15 -1.38778e-17
364 1 0.8 0.4 0.4 1.9082e-17 1.47451e-16 -1.34441e-16
326 1 0.6 0.5 0.3 -2.55351e-15 2.74433e-15 -1.61156e-15
332 1 0.5 0.6 0.3 2.77556e-15 -2.69923e-15 -1.51268e-15
335 1 0.7 0.6 0.3 -4.68375e-17 -2.64242e-15 -1.92034e-15
336 1 0.6 0.7 0.3 -2.51188e-15 -2.32453e-16 -1.94116e-15
361 1 0.5 0.5 0.4 3.08087e-15 3.01582e-15 -3.1225e-17
363 1 0.7 0.5 0.4 -7.97973e-17 3.0323e-15 -1.13624e-16
366 1 0.5 0.7 0.4 3.05311e-15 -2.22045e-16 -3.46945e-17
367 1 0.6 0.6 0.4 -2.90046e-15 -3.02883e-15 -8.32667e-17
368 1 0.7 0.7 0.4 -8.1532e-17 -1.76725e-16 -1.25767e-16
330 1 0.8 0.5 0.3 -2.77556e-17 2.71311e-15 -1.85962e-15
339 1 0.9 0.6 0.3 -1.94289e-16 -2.46331e-15 -1.80585e-15
340 1 0.8 0.7 0.3 1.52656e-16 -2.81025e-16 -2.21351e-15
365 1 0.9 0.5 0.4 -9.02056e-17 3.04617e-15 -6.93889e-17
369 1 0.8 0.6 0.4 1.11022e-16 -2.89178e-15 -2.19443e-16
370 1 0.9 0.7 0.4 -7.63278e-17 -2.00361e-16 -1.94289e-16
342 1 0.5 0.8 0.3 2.77556e-15 2.08167e-17 -1.88738e-15
345 1 0.7 0.8 0.3 -1.60462e-17 9.1073e-18 -2.20917e-15
346 1 0.6 0.9 0.3 -2.60902e-15 -1.11022e-16 -1.85789e-15
371 1 0.5 0.9 0.4 2.9976e-15 -2.77556e-17 -1.04083e-17
372 1 0.6 0.8 0.4 -2.91434e-15 3.46945e-17 -1.17961e-16
373 1 0.7 0.9 0.4 -1.02782e-16 -1.1254e-16 -2.34188e-17
349 1 0.9 0.8 0.3 -1.04083e-16 -4.16334e-17 -2.13024e-15
350 1 0.8 0.9 0.3 8.32667e-17 -1.63064e-16 -2.158e-15
374 1 0.8 0.8 0.4 1.38778e-16 -6.59195e-17 -1.37043e-16
375 1 0.9 0.9 0.4 -6.245e-17 -1.45717e-16 1.11022e-16
376 1 0.5 0 0.5 3.02536e-15 9.92262e-16 3.07393e-15
377 1 0.7 0 0.5 -1.45717e-16 1.00874e-15 3.08521e-15
378 1 0.6 0.1 0.5 -2.88658e-15 1.81279e-16 3.03056e-15
381 1 0.5 0.2 0.5 2.88658e-15 4.78784e-16 2.87964e-15
382 1 0.7 0.2 0.5 -1.96024e-16 7.50268e-16 2.88658e-15
401 1 0.5 0.1 0.6 2.9976e-15 2.77556e-16 -2.91434e-15
402 1 0.5 0 0.7 2.94209e-15 8.53484e-16 -2.22045e-16
403 1 0.6 0 0.6 -2.88658e-15 9.02056e-16 -2.82933e-15
404 1 0.7 0.1 0.6 -1.32706e-16 2.01228e-16 -2.62637e-15
405 1 0.7 0 0.7 -9.62772e-17 8.9902e-16 -1.68268e-16
406 1 0.6 0.1 0.7 -2.7478e-15 1.85615e-16 -9.02056e-17
412 1 0.5 0.2 0.7 2.85882e-15 7.77156e-16 -1.04083e-16
413 1 0.6 0.2 0.6 -2.63678e-15 4.996e-16 -2.38785e-15
415 1 0.7 0.2 0.7 -9.54098e-17 1.13147e-15 -2.02963e-16
379 1 0.9 0 0.5 -2.08167e-17 9.29812e-16 3.07393e-15
380 1 0.8 0.1 0.5 1.38778e-17 2.25514e-16 3.03924e-15
384 1 0.9 0.2 0.5 -7.97973e-17 7.87998e-16 2.92648e-15
407 1 0.8 0 0.6 5.55112e-17 9.57567e-16 -2.74086e-15
408 1 0.9 0.1 0.6 -1.38778e-17 2.77556e-17 -2.85882e-15
409 1 0.9 0 0.7 0 8.46545e-16 -6.93889e-17
410 1 0.8 0.1 0.7 3.64292e-17 2.34188e-16 -8.32667e-17
417 1 0.8 0.2 0.6 2.77556e-17 9.08995e-16 -2.50971e-15
419 1 0.9 0.2 0.7 -4.85723e-17 1.05341e-15 -1.9082e-16
383 1 0.6 0.3 0.5 -2.60902e-15 -1.56819e-15 2.72005e-15
386 1 0.5 0.4 0.5 2.9976e-15 1.73472e-16 3.02536e-15
387 1 0.7 0.4 0.5 -1.11022e-16 1.40946e-16 3.12684e-15
411 1 0.5 0.3 0.6 2.77556e-15 -1.63758e-15 -2.498e-15
414 1 0.7 0.3 0.6 -9.19403e-17 -1.7434e-15 -2.36616e-15
416 1 0.6 0.3 0.7 -2.55351e-15 -1.78416e-15 1.38778e-17
422 1 0.5 0.4 0.7 2.96985e-15 -4.16334e-17 -1.17961e-16
423 1 0.6 0.4 0.6 -2.77556e-15 1.04083e-16 -2.76081e-15
425 1 0.7 0.4 0.7 7.97973e-17 9.58435e-17 -7.71952e-17
385 1 0.8 0.3 0.5 -1.38778e-17 -1.82146e-15 2.85189e-15
389 1 0.9 0.4 0.5 -9.02056e-17 5.55112e-17 3.16414e-15
418 1 0.9 0.3 0.6 -1.17961e-16 -1.69916e-15 -2.41474e-15
420 1 0.8 0.3 0.7 3.46945e-17 -1.96024e-15 -8.67362e-19
427 1 0.8 0.4 0.6 -3.55618e-17 1.60896e-16 -2.65152e-15
429 1 0.9 0.4 0.7 -1.49186e-16 7.63278e-17 -7.37257e-17
388 1 0.6 0.5 0.5 -2.83107e-15 3.08174e-15 3.16414e-15
391 1 0.5 0.6 0.5 2.96985e-15 -2.92821e-15 3.02883e-15
392 1 0.7 0.6 0.5 -1.10155e-16 -2.96291e-15 3.13031e-15
393 1 0.6 0.7 0.5 -2.88658e-15 -2.46331e-16 3.18842e-15
421 1 0.5 0.5 0.6 3.02536e-15 3.09908e-15 -2.80331e-15
424 1 0.7 0.5 0.6 3.1225e-17 3.02753e-15 -2.66887e-15
426 1 0.6 0.5 0.7 -2.80331e-15 3.2023e-15 -7.63278e-17
431 1 0.5 0.7 0.6 3.13638e-15 -2.58474e-16 -2.76168e-15
432 1 0.5 0.6 0.7 3.05311e-15 -2.89352e-15 -1.73472e-18
433 1 0.6 0.6 0.6 -2.85882e-15 -2.97809e-15 -2.7014e-15
434 1 0.7 0.7 0.6 -1.48319e-16 -1.66533e-16 -2.55958e-15
435 1 0.7 0.6 0.7 -2.86229e-17 -2.90653e-15 -1.4138e-16
436 1 0.6 0.7 0.7 -2.70617e-15 -1.52656e-16 -7.63278e-17
390 1 0.8 0.5 0.5 0 3.09128e-15 3.10169e-15
394 1 0.9 0.6 0.5 -1.11022e-16 -2.94903e-15 3.0375e-15
395 1 0.8 0.7 0.5 2.77556e-17 -3.25261e-16 3.17801e-15
428 1 0.9 0.5 0.6 -2.01228e-16 3.05398e-15 -2.67841e-15
430 1 0.8 0.5 0.7 -2.08167e-17 2.99066e-15 -9.32414e-17
437 1 0.8 0.6 0.6 -1.30104e-17 -3.01799e-15 -2.68188e-15
438 1 0.9 0.7 0.6 -1.31839e-16 -1.93422e-16 -2.63678e-15
439 1 0.9 0.6 0.7 -2.5327e-16 -2.90046e-15 -1.47018e-16
440 1 0.8 0.7 0.7 -1.21431e-17 -2.32453e-16 -4.68375e-17
396 1 0.5 0.8 0.5 3.08087e-15 9.71445e-17 3.0826e-15
397 1 0.7 0.8 0.5 -8.84709e-17 -5.85469e-17 3.26757e-15
398 1 0.6 0.9 0.5 -2.92821e-15 -1.66533e-16 3.1572e-15
441 1 0.5 0.9 0.6 2.9976e-15 -6.93889e-17 -2.80331e-15
442 1 0.5 0.8 0.7 3.08087e-15 -5.55112e-17 7.80626e-18
443 1 0.6 0.8 0.6 -2.88658e-15 9.54098e-18 -2.57997e-15
444 1 0.7 0.9 0.6 -6.41848e-17 -8.23994e-17 -2.73739e-15
445 1 0.7 0.8 0.7 -1.38778e-16 -7.76289e-17 -1.68268e-16
446 1 0.6 0.9 0.7 -2.73392e-15 -2.63678e-16 -7.28584e-17
399 1 0.9 0.8 0.5 -9.71445e-17 7.63278e-17 3.16414e-15
400 1 0.8 0.9 0.5 8.32667e-17 -1.32706e-16 3.12944e-15
447 1 0.8 0.8 0.6 2.77556e-17 4.16334e-17 -2.71441e-15
448 1 0.9 0.9 0.6 -1.80411e-16 -2.77556e-17 -2.76168e-15
449 1 0.9 0.8 0.7 -2.35922e-16 2.77556e-17 -4.85723e-17
450 1 0.8 0.9 0.7 4.77049e-18 -7.11237e-17 -6.245e-17
451 1 0.5 0.1 0.8 2.9976e-15 2.498e-16 -2.77556e-17
452 1 0.5 0 0.9 2.9976e-15 8.8124e-16 -8.32667e-17
453 1 0.6 0 0.8 -2.7478e-15 9.71445e-16 5.55112e-17
454 1 0.7 0.1 0.8 -1.15359e-16 1.68702e-16 -9.45424e-17
455 1 0.7 0 0.9 -1.661e-16 9.81637e-16 -2.56739e-16
456 1 0.6 0.1 0.9 -2.76168e-15 2.8276e-16 -1.249e-16
462 1 0.5 0.2 0.9 2.88658e-15 7.84095e-16 -1.56125e-16
463 1 0.6 0.2 0.8 -2.59515e-15 8.56953e-16 -1.56125e-17
465 1 0.7 0.2 0.9 -8.23994e-17 1.00245e-15 -2.37657e-16
457 1 0.8 0 0.8 0 9.15934e-16 8.67362e-18
458 1 0.9 0.1 0.8 -3.46945e-17 2.35922e-16 1.9082e-17
459 1 0.9 0 0.9 -9.36751e-17 9.78384e-16 -2.77556e-16
460 1 0.8 0.1 0.9 8.67362e-18 1.59595e-16 -1.2837e-16
467 1 0.8 0.2 0.8 1.11022e-16 1.04387e-15 -9.71445e-17
469 1 0.9 0.2 0.9 -1.04083e-16 1.06642e-15 -3.40006e-16
461 1 0.5 0.3 0.8 2.66454e-15 -1.73472e-15 1.38778e-17
464 1 0.7 0.3 0.8 -4.68375e-17 -1.99276e-15 8.67362e-18
466 1 0.6 0.3 0.9 -2.6229e-15 -1.7486e-15 -1.94289e-16
472 1 0.5 0.4 0.9 3.16414e-15 2.77556e-17 -1.94289e-16
473 1 0.6 0.4 0.8 -2.8727e-15 9.02056e-17 -2.60209e-17
475 1 0.7 0.4 0.9 -9.02056e-17 5.81132e-17 -2.44596e-16
468 1 0.9 0.3 0.8 -1.38778e-16 -2.04003e-15 5.55112e-17
470 1 0.8 0.3 0.9 3.46945e-17 -1.9533e-15 -2.13371e-16
477 1 0.8 0.4 0.8 1.38778e-17 1.33574e-16 -1.66533e-16
479 1 0.9 0.4 0.9 -4.85723e-17 5.55112e-17 -2.498e-16
471 1 0.5 0.5 0.8 2.9976e-15 2.94339e-15 -6.93889e-18
474 1 0.7 0.5 0.8 -9.49761e-17 3.10537e-15 -1.07553e-16
476 1 0.6 0.5 0.9 -2.77556e-15 2.92474e-15 -2.98372e-16
481 1 0.5 0.7 0.8 3.05311e-15 -1.73472e-16 -2.77556e-17
482 1 0.5 0.6 0.9 3.05311e-15 -2.91434e-15 -2.74086e-16
483 1 0.6 0.6 0.8 -2.77556e-15 -2.83974e-15 -3.1225e-17
484 1 0.7 0.7 0.8 -1.25767e-16 -1.59811e-16 -1.43982e-16
485 1 0.7 0.6 0.9 -1.45717e-16 -2.90479e-15 -2.6975e-16
486 1 0.6 0.7 0.9 -2.85189e-15 6.93889e-18 -2.89699e-16
478 1 0.9 0.5 0.8 -1.249e-16 2.98372e-15 -1.04083e-17
480 1 0.8 0.5 0.9 3.46945e-17 3.02189e-15 -3.88578e-16
487 1 0.8 0.6 0.8 -1.38778e-17 -2.87444e-15 -6.93889e-17
488 1 0.9 0.7 0.8 -7.80626e-17 -9.19403e-17 -4.85723e-17
489 1 0.9 0.6 0.9 -9.02056e-17 -2.92821e-15 -2.63678e-16
490 1 0.8 0.7 0.9 -5.72459e-17 -1.97325e-16 -3.83374e-16
491 1 0.5 0.9 0.8 3.05311e-15 -2.77556e-16 5.55112e-17
492 1 0.5 0.8 0.9 3.05311e-15 -1.04083e-16 -2.23779e-16
493 1 0.6 0.8 0.8 -2.85882e-15 -7.11237e-17 1.73472e-18
494 1 0.7 0.9 0.8 -8.58688e-17 -1.53523e-16 2.60209e-17
495 1 0.7 0.8 0.9 -1.45717e-16 8.67362e-19 -3.33067e-16
496 1 0.6 0.9 0.9 -2.84495e-15 -2.35922e-16 -2.60209e-17
497 1 0.8 0.8 0.8 -9.71445e-17 -2.77556e-17 -9.71445e-17
498 1 0.9 0.9 0.8 -6.245e-17 -2.498e-16 -1.38778e-17
499 1 0.9 0.8 0.9 4.85723e-17 -2.08167e-17 -8.32667e-17
500 1 0.8 0.9 0.9 -5.20417e-18 -1.71738e-16 -2.22045e-16
