ITEM: TIMESTEP
0
ITEM: NUMBER OF ATOMS
500
ITEM: BOX BOUNDS pp pp pp
0.0000000000000000e+00 2.0199999999999999e+01
0.0000000000000000e+00 2.0199999999999999e+01
0.0000000000000000e+00 2.0199999999999999e+01
id type xs ys zs fx fy fz
1 1 0 0 0 3.95517e-16 3.747e-16 3.60822e-16
2 1 0.1 0.1 0 6.93889e-17 1.00614e-16 1.11022e-16
3 1 0.1 0 0.1 9.02056e-17 9.71445e-17 7.28584e-17
4 1 0 0.1 0.1 8.67362e-17 1.249e-16 8.32667e-17
21 1 0 0.2 0 7.49401e-16 1.11283e-15 7.8236e-16
23 1 0.1 0.2 0.1 1.11022e-16 2.25167e-15 1.00614e-16
51 1 0 0 0.2 7.49401e-16 7.96238e-16 1.15533e-15
52 1 0.1 0.1 0.2 1.66533e-16 2.01228e-16 2.27943e-15
71 1 0 0.2 0.2 1.31839e-15 1.58987e-15 1.63584e-15
5 1 0.2 0 0 1.07206e-15 7.56285e-16 7.24193e-16
6 1 0.3 0.1 0 -1.41727e-15 1.17961e-16 7.45931e-16
7 1 0.3 0 0.1 -1.33774e-15 7.14706e-16 6.245e-17
8 1 0.2 0.1 0.1 2.22045e-15 1.66913e-16 1.35688e-16
25 1 0.2 0.2 0 1.6636e-15 1.61497e-15 1.33015e-15
27 1 0.3 0.2 0.1 -2.33873e-15 1.62717e-15 1.04463e-16
55 1 0.2 0 0.2 1.60982e-15 1.16568e-15 1.67916e-15
56 1 0.3 0.1 0.2 -2.34047e-15 1.73472e-16 1.68789e-15
75 1 0.2 0.2 0.2 2.04524e-15 2.09115e-15 2.15941e-15
9 1 0.4 0 0 1.38778e-17 3.60822e-16 4.34548e-16
10 1 0.5 0.1 0 3.84068e-15 7.63278e-17 2.58474e-16
11 1 0.5 0 0.1 3.8287e-15 2.35922e-16 6.93889e-18
12 1 0.4 0.1 0.1 1.07553e-16 0 1.38778e-17
29 1 0.4 0.2 0 -3.64292e-17 6.47919e-16 9.76324e-16
31 1 0.5 0.2 0.1 4.02808e-15 1.56992e-15 9.7524e-17
59 1 0.4 0 0.2 5.20417e-18 9.36751e-16 6.26235e-16
60 1 0.5 0.1 0.2 4.04023e-15 8.32667e-17 1.51615e-15
79 1 0.4 0.2 0.2 -3.81639e-17 1.11976e-15 1.13597e-15
13 1 0.6 0 0 -3.97252e-15 2.91434e-16 3.18322e-16
14 1 0.7 0.1 0 -1.52656e-16 1.38778e-17 4.18394e-16
15 1 0.7 0 0.1 -1.249e-16 3.4727e-16 -2.25514e-17
16 1 0.6 0.1 0.1 -3.81612e-15 4.85723e-17 6.93889e-17
33 1 0.6 0.2 0 -4.27409e-15 1.07813e-15 9.34691e-16
35 1 0.7 0.2 0.1 -2.09468e-16 1.14877e-15 9.7524e-17
63 1 0.6 0 0.2 -4.29317e-15 9.22873e-16 1.079e-15
64 1 0.7 0.1 0.2 -1.9906e-16 9.71445e-17 1.21295e-15
83 1 0.6 0.2 0.2 -4.51321e-15 1.49793e-15 1.43781e-15
17 1 0.8 0 0 -3.33934e-16 4.75314e-16 5.23886e-16
18 1 0.9 0.1 0 -1.73472e-17 1.47451e-16 3.92048e-16
19 1 0.9 0 0.1 -2.77556e-17 3.40006e-16 1.00614e-16
20 1 0.8 0.1 0.1 -2.63678e-16 -3.46945e-18 6.245e-17
37 1 0.8 0.2 0 -2.5327e-16 5.56846e-16 9.6971e-16
39 1 0.9 0.2 0.1 6.93889e-18 1.06859e-15 1.04083e-17
67 1 0.8 0 0.2 -2.92301e-16 9.71445e-16 5.89806e-16
68 1 0.9 0.1 0.2 3.46945e-18 1.14492e-16 1.07206e-15
87 1 0.8 0.2 0.2 -3.72966e-16 1.04257e-15 1.13277e-15
22 1 0.1 0.3 0 6.93889e-17 -1.4138e-15 7.91034e-16
24 1 0 0.3 0.1 7.35523e-16 -1.33921e-15 3.46945e-17
41 1 0 0.4 0 4.09395e-16 -6.93889e-18 4.33681e-16
42 1 0.1 0.4 0.1 -9.02056e-17 2.42861e-17 4.0766e-17
72 1 0.1 0.3 0.2 1.94289e-16 -2.42861e-15 1.6185e-15
91 1 0 0.4 0.2 9.50628e-16 -9.19403e-17 5.89806e-16
26 1 0.3 0.3 0 -1.39862e-15 -1.43201e-15 1.39385e-15
28 1 0.2 0.3 0.1 1.55778e-15 -2.39869e-15 1.35688e-16
43 1 0.2 0.4 0 5.34295e-16 -1.04083e-16 8.27409e-16
44 1 0.3 0.4 0.1 -8.10116e-16 -4.85723e-17 1.00614e-16
76 1 0.3 0.3 0.2 -2.23205e-15 -2.31933e-15 9.66241e-16
93 1 0.2 0.4 0.2 1.08594e-15 -9.71445e-17 1.16568e-15
30 1 0.5 0.3 0 4.23403e-15 -8.63892e-16 9.00321e-16
32 1 0.4 0.3 0.1 6.76542e-17 -9.41955e-16 7.97973e-17
45 1 0.4 0.4 0 -4.51028e-17 -7.63278e-17 5.0307e-16
46 1 0.5 0.4 0.1 3.76435e-15 -9.71445e-17 -1.38778e-17
80 1 0.5 0.3 0.2 4.40625e-15 -1.76768e-15 8.92515e-16
95 1 0.4 0.4 0.2 -1.11022e-16 -2.08167e-16 1.11022e-16
34 1 0.7 0.3 0 -2.15973e-16 -4.98733e-16 1.01948e-15
36 1 0.6 0.3 0.1 -4.24113e-15 -1.26982e-15 2.94903e-17
47 1 0.6 0.4 0 -4.00721e-15 0 3.33067e-16
48 1 0.7 0.4 0.1 -2.14238e-16 -4.13081e-17 -2.08167e-17
84 1 0.7 0.3 0.2 -2.77989e-16 -1.48319e-15 4.85235e-16
97 1 0.6 0.4 0.2 -4.26742e-15 -1.45717e-16 5.16948e-16
38 1 0.9 0.3 0 5.20417e-17 -5.28223e-16 9.54098e-16
40 1 0.8 0.3 0.1 -2.91434e-16 -1.04083e-15 1.249e-16
49 1 0.8 0.4 0 -2.65413e-16 3.1225e-17 4.57967e-16
50 1 0.9 0.4 0.1 9.71445e-17 -1.38778e-17 -2.77556e-17
88 1 0.9 0.3 0.2 1.11022e-16 -1.41987e-15 4.82253e-16
99 1 0.8 0.4 0.2 -3.22659e-16 -2.42861e-17 6.93889e-17
53 1 0.1 0 0.3 1.249e-16 8.46545e-16 -1.34007e-15
54 1 0 0.1 0.3 7.00828e-16 3.46945e-17 -1.33921e-15
73 1 0.1 0.2 0.3 1.94289e-16 1.57166e-15 -2.35662e-15
101 1 0 0 0.4 4.3715e-16 4.71845e-16 -5.20417e-17
102 1 0.1 0.1 0.4 8.32667e-17 -4.16334e-17 -1.59595e-16
111 1 0 0.2 0.4 9.22873e-16 5.82e-16 -1.5439e-16
57 1 0.3 0 0.3 -1.34989e-15 1.38084e-15 -1.36523e-15
58 1 0.2 0.1 0.3 1.52482e-15 2.36302e-16 -2.26685e-15
77 1 0.3 0.2 0.3 -2.32442e-15 8.90781e-16 -2.27205e-15
103 1 0.2 0 0.4 6.14959e-16 1.01996e-15 -1.00614e-16
104 1 0.3 0.1 0.4 -9.75782e-16 4.16334e-17 -5.89806e-17
113 1 0.2 0.2 0.4 1.14839e-15 1.02257e-15 -1.75478e-16
61 1 0.5 0 0.3 4.23722e-15 9.57567e-16 -8.27463e-16
62 1 0.4 0.1 0.3 5.20417e-18 4.85723e-17 -9.03791e-16
81 1 0.5 0.2 0.3 4.40582e-15 9.39353e-16 -1.65536e-15
105 1 0.4 0 0.4 -2.73219e-17 5.34295e-16 -9.80119e-17
106 1 0.5 0.1 0.4 3.82593e-15 5.55112e-17 1.73472e-17
115 1 0.4 0.2 0.4 -7.97973e-17 8.58688e-17 -1.68539e-16
65 1 0.7 0 0.3 -1.5786e-16 1.04116e-15 -4.67508e-16
66 1 0.6 0.1 0.3 -4.24113e-15 2.08167e-17 -1.19869e-15
85 1 0.7 0.2 0.3 -2.00794e-16 4.02835e-16 -1.41857e-15
107 1 0.6 0 0.4 -4.00634e-15 4.30211e-16 -1.82146e-17
108 1 0.7 0.1 0.4 -1.05818e-16 -1.04083e-16 -9.68193e-17
117 1 0.6 0.2 0.4 -4.2949e-15 4.77916e-16 -1.89356e-16
69 1 0.9 0 0.3 2.08167e-17 9.29812e-16 -4.92661e-16
70 1 0.8 0.1 0.3 -3.64292e-16 7.97973e-17 -1.00267e-15
89 1 0.9 0.2 0.3 6.245e-17 4.85723e-16 -1.37043e-15
109 1 0.8 0 0.4 -2.9577e-16 5.34295e-16 -6.93889e-18
110 1 0.9 0.1 0.4 1.73472e-17 -1.9082e-17 -6.59195e-17
119 1 0.8 0.2 0.4 -3.1225e-16 -1.73472e-18 -1.09288e-16
74 1 0 0.3 0.3 1.35308e-15 -1.32533e-15 -1.33227e-15
92 1 0.1 0.4 0.3 1.11022e-16 -4.51028e-17 -8.91648e-16
112 1 0.1 0.3 0.4 8.32667e-17 -8.36137e-16 -1.31839e-16
121 1 0 0.4 0.4 5.20417e-16 -1.04083e-16 -1.07553e-16
78 1 0.2 0.3 0.3 8.89913e-16 -2.35879e-15 -2.25644e-15
94 1 0.3 0.4 0.3 -8.60423e-16 -6.93889e-17 -8.1532e-16
114 1 0.3 0.3 0.4 -9.51496e-16 -8.91648e-16 -9.80119e-17
122 1 0.2 0.4 0.4 7.63278e-17 -2.01228e-16 -1.89085e-16
82 1 0.4 0.3 0.3 2.08167e-17 -8.82974e-16 -9.35016e-16
96 1 0.5 0.4 0.3 4.17895e-15 -1.249e-16 -3.19189e-16
116 1 0.5 0.3 0.4 4.21971e-15 -3.52149e-16 -9.54098e-18
123 1 0.4 0.4 0.4 -4.16334e-17 -4.85723e-17 -9.71445e-17
86 1 0.6 0.3 0.3 -4.73726e-15 -1.24033e-15 -1.18829e-15
98 1 0.7 0.4 0.3 -1.34441e-16 -1.35525e-17 -2.08167e-17
118 1 0.7 0.3 0.4 -1.58727e-16 2.42861e-17 -6.29921e-17
124 1 0.6 0.4 0.4 -4.07313e-15 -3.46945e-17 -3.64292e-17
90 1 0.8 0.3 0.3 -2.98372e-16 -9.78384e-16 -9.57567e-16
100 1 0.9 0.4 0.3 9.02056e-17 -3.46945e-17 -3.46945e-18
120 1 0.9 0.3 0.4 8.32667e-17 -3.46945e-18 -4.51028e-17
125 1 0.8 0.4 0.4 -2.34188e-16 2.08167e-17 0
126 1 0.1 0 0.5 5.55112e-17 2.2031e-16 3.6221e-15
127 1 0 0.1 0.5 1.63064e-16 5.55112e-17 3.76435e-15
136 1 0.1 0.2 0.5 9.71445e-17 1.60635e-15 4.10349e-15
151 1 0 0 0.6 3.1225e-16 3.03577e-16 -3.92048e-15
152 1 0.1 0.1 0.6 -4.16334e-17 3.81639e-17 -3.77129e-15
153 1 0.1 0 0.7 6.93889e-18 2.91434e-16 -1.2837e-16
154 1 0 0.1 0.7 2.94903e-16 2.08167e-17 -1.17961e-16
171 1 0 0.2 0.6 8.46545e-16 1.10155e-15 -4.22926e-15
173 1 0.1 0.2 0.7 -3.46945e-17 1.16226e-15 -1.93422e-16
128 1 0.3 0 0.5 -8.63459e-16 9.29812e-16 4.22318e-15
129 1 0.2 0.1 0.5 1.57079e-15 6.28295e-17 3.99279e-15
138 1 0.3 0.2 0.5 -1.68604e-15 9.35883e-16 4.43428e-15
155 1 0.2 0 0.6 1.1293e-15 8.32613e-16 -4.26455e-15
156 1 0.3 0.1 0.6 -1.2117e-15 9.02056e-17 -4.28824e-15
157 1 0.3 0 0.7 -4.56503e-16 9.36751e-16 -2.02963e-16
158 1 0.2 0.1 0.7 1.16573e-15 1.11402e-16 -1.23707e-16
175 1 0.2 0.2 0.6 1.52049e-15 1.48357e-15 -4.46518e-15
177 1 0.3 0.2 0.7 -1.30337e-15 4.88325e-16 -2.46873e-16
130 1 0.5 0 0.5 3.92611e-15 2.98372e-16 3.87104e-15
131 1 0.4 0.1 0.5 -5.37764e-17 -6.93889e-18 3.77563e-15
140 1 0.5 0.2 0.5 4.05551e-15 8.21392e-16 4.05958e-15
159 1 0.4 0 0.6 5.20417e-18 3.747e-16 -4.02369e-15
160 1 0.5 0.1 0.6 3.6993e-15 1.73472e-16 -3.84415e-15
161 1 0.5 0 0.7 3.89809e-15 2.98372e-16 -1.82146e-16
162 1 0.4 0.1 0.7 0 1.38778e-17 -1.84748e-16
179 1 0.4 0.2 0.6 -7.80626e-18 5.28657e-16 -4.28504e-15
181 1 0.5 0.2 0.7 4.16279e-15 5.18682e-16 -2.59883e-16
132 1 0.7 0 0.5 -1.93422e-16 3.54209e-16 3.87104e-15
133 1 0.6 0.1 0.5 -4.02803e-15 -2.08167e-17 3.70797e-15
142 1 0.7 0.2 0.5 -1.0842e-16 4.15846e-16 4.16366e-15
163 1 0.6 0 0.6 -4.03757e-15 2.63678e-16 -4.04971e-15
164 1 0.7 0.1 0.6 -1.64799e-16 -3.46945e-17 -4.00141e-15
165 1 0.7 0 0.7 -1.02349e-16 4.37476e-16 -1.47451e-16
166 1 0.6 0.1 0.7 -3.9948e-15 6.93889e-18 -1.63931e-16
183 1 0.6 0.2 0.6 -4.36516e-15 9.0249e-16 -4.19483e-15
185 1 0.7 0.2 0.7 -7.11237e-17 4.28802e-17 -4.73796e-17
134 1 0.9 0 0.5 2.77556e-17 3.40006e-16 3.8719e-15
135 1 0.8 0.1 0.5 -3.46945e-16 1.00614e-16 3.85803e-15
144 1 0.9 0.2 0.5 2.77556e-17 4.64906e-16 4.28824e-15
167 1 0.8 0 0.6 -2.24647e-16 3.57353e-16 -3.96037e-15
168 1 0.9 0.1 0.6 1.00614e-16 1.23165e-16 -4.00374e-15
169 1 0.9 0 0.7 -6.93889e-18 5.34295e-16 -2.11636e-16
170 1 0.8 0.1 0.7 -2.70617e-16 3.81639e-17 -5.89806e-17
187 1 0.8 0.2 0.6 -2.8276e-16 5.08274e-16 -4.39926e-15
189 1 0.9 0.2 0.7 -2.77556e-17 6.93889e-18 -1.70003e-16
137 1 0 0.3 0.5 8.39606e-16 -7.77156e-16 4.25007e-15
146 1 0.1 0.4 0.5 -2.77556e-17 3.46945e-18 3.79644e-15
172 1 0.1 0.3 0.6 1.249e-16 -1.25941e-15 -4.30732e-15
174 1 0 0.3 0.7 9.62772e-16 -4.92661e-16 -1.59595e-16
191 1 0 0.4 0.6 3.53884e-16 3.81639e-17 -4.01415e-15
192 1 0.1 0.4 0.7 -9.71445e-17 -6.245e-17 -1.67401e-16
139 1 0.2 0.3 0.5 8.7777e-16 -1.7447e-15 4.42907e-15
147 1 0.3 0.4 0.5 -2.7929e-16 -1.38778e-17 4.27436e-15
176 1 0.3 0.3 0.6 -1.14969e-15 -1.24033e-15 -4.67161e-15
178 1 0.2 0.3 0.7 4.56232e-16 -1.38041e-15 -2.02637e-16
193 1 0.2 0.4 0.6 5.23886e-16 -1.17961e-16 -4.31399e-15
194 1 0.3 0.4 0.7 8.1532e-17 -6.93889e-17 -1.97758e-16
141 1 0.4 0.3 0.5 1.56125e-17 -3.36536e-16 4.28477e-15
148 1 0.5 0.4 0.5 3.8216e-15 2.77556e-17 3.80598e-15
180 1 0.5 0.3 0.6 4.04321e-15 -6.67869e-16 -4.30211e-15
182 1 0.4 0.3 0.7 5.20417e-18 -1.56125e-17 -2.32453e-16
195 1 0.4 0.4 0.6 -2.77556e-17 -3.46945e-17 -4.05231e-15
196 1 0.5 0.4 0.7 3.91527e-15 4.16334e-17 -9.71445e-17
143 1 0.6 0.3 0.5 -4.46518e-15 -5.93275e-16 4.1165e-15
149 1 0.7 0.4 0.5 -7.54605e-17 7.66531e-17 3.95864e-15
184 1 0.7 0.3 0.6 -1.22298e-16 -2.89699e-16 -4.42121e-15
186 1 0.6 0.3 0.7 -4.45623e-15 -3.52149e-16 -1.2837e-16
197 1 0.6 0.4 0.6 -3.96211e-15 9.71445e-17 -3.9517e-15
198 1 0.7 0.4 0.7 -1.1189e-16 3.50197e-17 -1.35308e-16
145 1 0.8 0.3 0.5 -2.46331e-16 -4.14599e-16 4.39926e-15
150 1 0.9 0.4 0.5 2.77556e-17 8.32667e-17 4.03844e-15
188 1 0.9 0.3 0.6 5.55112e-17 -3.9465e-16 -4.53457e-15
190 1 0.8 0.3 0.7 -2.67147e-16 -7.45931e-17 -1.49186e-16
199 1 0.8 0.4 0.6 -2.67147e-16 1.00614e-16 -4.16681e-15
200 1 0.9 0.4 0.7 4.16334e-17 3.46945e-17 -1.49186e-16
201 1 0 0 0.8 4.78784e-16 4.45824e-16 -2.77556e-16
202 1 0.1 0.1 0.8 6.93889e-17 9.71445e-17 -2.37657e-16
203 1 0.1 0 0.9 9.71445e-17 3.17454e-16 0
204 1 0 0.1 0.9 3.7817e-16 1.249e-16 0
221 1 0 0.2 0.8 9.29812e-16 5.62918e-16 -2.63678e-16
223 1 0.1 0.2 0.9 6.245e-17 1.09288e-15 1.64799e-17
205 1 0.2 0 0.8 5.49907e-16 9.36696e-16 -2.71484e-16
206 1 0.3 0.1 0.8 -9.41087e-16 8.32667e-17 -2.84495e-16
207 1 0.3 0 0.9 -5.26922e-16 9.36751e-16 -5.20417e-18
208 1 0.2 0.1 0.9 1.05124e-15 8.36462e-17 2.89482e-17
225 1 0.2 0.2 0.8 1.05992e-15 1.0642e-15 -2.32724e-16
227 1 0.3 0.2 0.9 -1.40892e-15 4.64906e-16 5.75711e-17
209 1 0.4 0 0.8 1.04083e-17 4.57967e-16 -2.43729e-16
210 1 0.5 0.1 0.8 3.88058e-15 1.38778e-16 -3.26128e-16
211 1 0.5 0 0.9 3.8732e-15 3.33067e-16 6.93889e-18
212 1 0.4 0.1 0.9 -1.21431e-17 0 2.68882e-17
229 1 0.4 0.2 0.8 -4.16334e-17 6.93889e-17 -2.90837e-16
231 1 0.5 0.2 0.9 4.24406e-15 5.23886e-16 1.94072e-17
213 1 0.6 0 0.8 -3.97252e-15 3.60822e-16 -2.35922e-16
214 1 0.7 0.1 0.8 -1.5439e-16 1.38778e-17 -3.18864e-16
215 1 0.7 0 0.9 -2.15973e-16 4.44414e-16 -9.54098e-18
216 1 0.6 0.1 0.9 -3.98813e-15 1.04083e-16 1.99493e-17
233 1 0.6 0.2 0.8 -4.4545e-15 5.1608e-16 -3.17725e-16
235 1 0.7 0.2 0.9 -1.93855e-16 6.6299e-17 -1.26852e-17
217 1 0.8 0 0.8 -2.97505e-16 5.72459e-16 -3.22659e-16
218 1 0.9 0.1 0.8 3.46945e-18 1.2837e-16 -3.40006e-16
219 1 0.9 0 0.9 3.46945e-17 5.27356e-16 -3.46945e-17
220 1 0.8 0.1 0.9 -2.91434e-16 1.00614e-16 1.38778e-17
237 1 0.8 0.2 0.8 -2.86229e-16 5.37764e-17 -3.22659e-16
239 1 0.9 0.2 0.9 2.08167e-17 4.16334e-17 2.77556e-17
222 1 0.1 0.3 0.8 8.32667e-17 -9.45424e-16 -2.51535e-16
224 1 0 0.3 0.9 9.35016e-16 -5.20417e-16 2.42861e-17
241 1 0 0.4 0.8 4.64906e-16 -1.56125e-17 -2.60209e-16
242 1 0.1 0.4 0.9 2.08167e-17 -1.9082e-17 1.73472e-17
226 1 0.3 0.3 0.8 -9.66241e-16 -9.64506e-16 -2.54137e-16
228 1 0.2 0.3 0.9 4.49293e-16 -1.38561e-15 1.07336e-17
243 1 0.2 0.4 0.8 7.97973e-17 -7.63278e-17 -2.42861e-16
244 1 0.3 0.4 0.9 -2.42861e-17 -4.85723e-17 -6.93889e-18
230 1 0.5 0.3 0.8 4.37584e-15 -4.09395e-16 -3.03577e-16
232 1 0.4 0.3 0.9 -2.42861e-17 -1.56125e-17 3.46945e-18
245 1 0.4 0.4 0.8 2.08167e-17 4.16334e-17 -2.77556e-16
246 1 0.5 0.4 0.9 4.04191e-15 9.71445e-17 -1.73472e-17
234 1 0.7 0.3 0.8 -1.73472e-16 -7.11237e-17 -2.50342e-16
236 1 0.6 0.3 0.9 -4.51549e-15 -3.79904e-16 3.46945e-17
247 1 0.6 0.4 0.8 -4.1564e-15 7.63278e-17 -2.75821e-16
248 1 0.7 0.4 0.9 -1.44849e-16 2.80808e-17 -1.38778e-17
238 1 0.9 0.3 0.8 2.42861e-17 -1.00614e-16 -2.70617e-16
240 1 0.8 0.3 0.9 -2.46331e-16 -1.14492e-16 3.81639e-17
249 1 0.8 0.4 0.8 -2.5327e-16 5.89806e-17 -2.498e-16
250 1 0.9 0.4 0.9 4.85723e-17 6.93889e-17 -1.38778e-17
251 1 0.1 0.5 0 -2.77556e-17 3.82507e-15 1.07553e-16
252 1 0 0.5 0.1 2.11636e-16 3.80251e-15 4.16334e-17
261 1 0 0.6 0 2.84495e-16 -3.97599e-15 2.93168e-16
262 1 0.1 0.7 0 4.16334e-17 -1.85615e-16 2.81025e-16
263 1 0.1 0.6 0.1 -6.245e-17 -3.80598e-15 -1.56125e-17
264 1 0 0.7 0.1 3.08781e-16 -1.8735e-16 4.51028e-17
301 1 0.1 0.5 0.2 4.16334e-17 3.97425e-15 1.57513e-15
311 1 0 0.6 0.2 8.88178e-16 -4.2813e-15 1.10849e-15
312 1 0.1 0.7 0.2 2.77556e-17 -1.89085e-16 1.23165e-15
253 1 0.3 0.5 0 -8.60423e-16 4.27609e-15 7.94503e-16
254 1 0.2 0.5 0.1 1.5786e-15 4.14284e-15 1.42627e-16
265 1 0.2 0.6 0 1.13191e-15 -4.26021e-15 7.59755e-16
266 1 0.3 0.7 0 -4.70815e-16 -1.79544e-16 9.8554e-16
267 1 0.3 0.6 0.1 -1.2477e-15 -4.21885e-15 -7.80626e-17
268 1 0.2 0.7 0.1 1.2117e-15 -1.79652e-16 7.25331e-17
303 1 0.3 0.5 0.2 -1.67574e-15 4.43395e-15 9.57567e-16
315 1 0.2 0.6 0.2 1.51008e-15 -4.47532e-15 1.55252e-15
316 1 0.3 0.7 0.2 -1.37103e-15 -2.17708e-16 4.02781e-16
255 1 0.5 0.5 0 3.88578e-15 3.90486e-15 2.04697e-16
256 1 0.4 0.5 0.1 3.29597e-17 3.76088e-15 8.32667e-17
269 1 0.4 0.6 0 -3.38271e-17 -3.91354e-15 3.1225e-16
270 1 0.5 0.7 0 3.98265e-15 -1.22298e-16 4.1655e-16
271 1 0.5 0.6 0.1 3.7882e-15 -3.85109e-15 2.60209e-17
272 1 0.4 0.7 0.1 -2.1684e-17 -5.33427e-17 2.76472e-18
305 1 0.5 0.5 0.2 4.11823e-15 4.09742e-15 9.08995e-16
319 1 0.4 0.6 0.2 -9.02056e-17 -4.25354e-15 4.996e-16
320 1 0.5 0.7 0.2 4.18188e-15 -1.7434e-16 5.68447e-16
257 1 0.7 0.5 0 -1.81279e-16 3.95343e-15 3.40331e-16
258 1 0.6 0.5 0.1 -3.79904e-15 3.88578e-15 6.93889e-17
273 1 0.6 0.6 0 -3.9994e-15 -4.00374e-15 3.22659e-16
274 1 0.7 0.7 0 -1.63064e-16 -1.98626e-16 5.41776e-16
275 1 0.7 0.6 0.1 -1.73472e-16 -3.9407e-15 -2.94903e-17
276 1 0.6 0.7 0.1 -4.00087e-15 -1.74773e-16 -2.49909e-17
307 1 0.7 0.5 0.2 -2.78423e-16 4.27436e-15 4.68755e-16
323 1 0.6 0.6 0.2 -4.09107e-15 -4.27436e-15 9.03791e-16
324 1 0.7 0.7 0.2 -7.11237e-17 -2.0383e-16 5.44812e-17
259 1 0.9 0.5 0 3.46945e-17 3.86496e-15 3.46945e-16
260 1 0.8 0.5 0.1 -3.64292e-16 3.94476e-15 1.49186e-16
277 1 0.8 0.6 0 -3.07046e-16 -3.96211e-15 4.75314e-16
278 1 0.9 0.7 0 -1.38778e-17 -3.13985e-16 4.87457e-16
279 1 0.9 0.6 0.1 9.02056e-17 -4.01068e-15 4.85723e-17
280 1 0.8 0.7 0.1 -3.40006e-16 -2.2031e-16 8.32667e-17
309 1 0.9 0.5 0.2 5.20417e-17 4.26742e-15 4.96131e-16
327 1 0.8 0.6 0.2 -3.69496e-16 -4.43048e-15 5.11743e-16
328 1 0.9 0.7 0.2 -6.93889e-18 -1.80411e-16 2.77556e-17
281 1 0 0.8 0 4.71845e-16 -3.1225e-16 4.4062e-16
282 1 0.1 0.9 0 1.66533e-16 5.89806e-17 3.38271e-16
283 1 0.1 0.8 0.1 1.80411e-16 -2.63678e-16 9.02056e-17
284 1 0 0.9 0.1 3.41741e-16 4.85723e-17 1.35308e-16
331 1 0 0.8 0.2 9.57567e-16 -2.9924e-16 6.73073e-16
332 1 0.1 0.9 0.2 2.08167e-16 3.81639e-17 1.14839e-15
285 1 0.2 0.8 0 6.56593e-16 -2.51535e-16 1.00609e-15
286 1 0.3 0.9 0 -5.31259e-16 -1.64799e-17 1.03736e-15
287 1 0.3 0.8 0.1 -1.02853e-15 -2.93168e-16 1.07553e-16
288 1 0.2 0.9 0.1 1.17007e-15 -3.69713e-17 5.93601e-17
335 1 0.2 0.8 0.2 1.08333e-15 -2.57606e-16 1.07808e-15
336 1 0.3 0.9 0.2 -1.42106e-15 -5.63785e-17 5.13478e-16
289 1 0.4 0.8 0 1.73472e-17 -2.27249e-16 5.75928e-16
290 1 0.5 0.9 0 4.01805e-15 -6.50521e-17 4.04191e-16
291 1 0.5 0.8 0.1 3.87857e-15 -2.63678e-16 1.00614e-16
292 1 0.4 0.9 0.1 -2.86229e-17 -7.11237e-17 -1.04083e-17
339 1 0.4 0.8 0.2 9.54098e-18 -3.00975e-16 1.14492e-16
340 1 0.5 0.9 0.2 4.27355e-15 -2.86229e-17 5.01335e-16
293 1 0.6 0.8 0 -4.15553e-15 -2.32453e-16 3.79037e-16
294 1 0.7 0.9 0 -2.3679e-16 2.77556e-17 5.41559e-16
295 1 0.7 0.8 0.1 -1.45717e-16 -2.5121e-16 8.67362e-17
296 1 0.6 0.9 0.1 -4.0772e-15 -3.98986e-17 -1.73472e-17
343 1 0.6 0.8 0.2 -4.52996e-15 -3.07046e-16 5.17815e-16
344 1 0.7 0.9 0.2 -1.47018e-16 1.12757e-17 9.05309e-18
297 1 0.8 0.8 0 -3.09648e-16 -3.13985e-16 5.3256e-16
298 1 0.9 0.9 0 3.46945e-17 7.97973e-17 5.10009e-16
299 1 0.9 0.8 0.1 -5.55112e-17 -2.98372e-16 1.83881e-16
300 1 0.8 0.9 0.1 -3.57353e-16 9.88792e-17 2.498e-16
347 1 0.8 0.8 0.2 -3.17454e-16 -2.93168e-16 -3.29597e-17
348 1 0.9 0.9 0.2 -6.93889e-18 6.93889e-17 3.1225e-17
302 1 0 0.5 0.3 8.95117e-16 4.22579e-15 -8.39606e-16
313 1 0.1 0.6 0.3 4.85723e-17 -4.23619e-15 -1.25767e-15
314 1 0 0.7 0.3 9.87058e-16 -1.45717e-16 -4.71845e-16
351 1 0.1 0.5 0.4 0 3.7869e-15 -4.85723e-17
356 1 0 0.6 0.4 3.46945e-16 -4.00374e-15 -8.67362e-18
357 1 0.1 0.7 0.4 -6.93889e-17 -9.54098e-17 -6.41848e-17
304 1 0.2 0.5 0.3 8.82974e-16 4.4551e-15 -1.68745e-15
317 1 0.3 0.6 0.3 -1.15836e-15 -4.66988e-15 -1.15272e-15
318 1 0.2 0.7 0.3 4.77049e-16 -2.03938e-16 -1.40578e-15
352 1 0.3 0.5 0.4 -2.42861e-16 4.31426e-15 -2.77556e-17
358 1 0.2 0.6 0.4 5.59448e-16 -4.33654e-15 -1.14492e-16
359 1 0.3 0.7 0.4 1.07715e-16 -1.76074e-16 -1.558e-16
306 1 0.4 0.5 0.3 -5.0307e-17 4.28824e-15 -2.96638e-16
321 1 0.5 0.6 0.3 4.0805e-15 -4.31599e-15 -5.27356e-16
322 1 0.4 0.7 0.3 0 -8.97719e-17 4.4886e-17
353 1 0.5 0.5 0.4 3.76088e-15 3.96384e-15 6.93889e-17
360 1 0.4 0.6 0.4 -1.82146e-17 -4.07313e-15 -6.93889e-17
361 1 0.5 0.7 0.4 3.90459e-15 -1.34441e-16 2.11419e-17
308 1 0.6 0.5 0.3 -4.21191e-15 4.2813e-15 -6.21031e-16
325 1 0.7 0.6 0.3 -2.62811e-16 -4.43336e-15 -3.322e-16
326 1 0.6 0.7 0.3 -4.48052e-15 -1.22732e-16 -3.41957e-16
354 1 0.7 0.5 0.4 -1.1189e-16 3.9916e-15 3.79471e-18
362 1 0.6 0.6 0.4 -3.9465e-15 -3.98293e-15 0
363 1 0.7 0.7 0.4 -1.53523e-16 -1.93422e-16 3.88144e-17
310 1 0.8 0.5 0.3 -3.40006e-16 4.40273e-15 -4.14599e-16
329 1 0.9 0.6 0.3 5.55112e-17 -4.5311e-15 -4.02456e-16
330 1 0.8 0.7 0.3 -3.19189e-16 -2.13371e-16 -9.88792e-17
355 1 0.9 0.5 0.4 3.81639e-17 4.02109e-15 5.89806e-17
364 1 0.8 0.6 0.4 -2.93168e-16 -4.15293e-15 3.81639e-17
365 1 0.9 0.7 0.4 3.46945e-17 -1.16226e-16 6.93889e-18
333 1 0.1 0.8 0.3 5.55112e-17 -2.60209e-16 -9.64506e-16
334 1 0 0.9 0.3 9.4369e-16 -1.38778e-17 -5.06539e-16
366 1 0 0.8 0.4 4.996e-16 -2.59341e-16 -3.46945e-17
367 1 0.1 0.9 0.4 4.16334e-17 2.77556e-17 -5.55112e-17
337 1 0.3 0.8 0.3 -9.17506e-16 -2.7929e-16 -9.26342e-16
338 1 0.2 0.9 0.3 4.28477e-16 -2.74303e-17 -1.38735e-15
368 1 0.2 0.8 0.4 7.37257e-17 -2.48933e-16 -1.47451e-16
369 1 0.3 0.9 0.4 3.72966e-17 -1.73472e-18 -1.0842e-16
341 1 0.5 0.8 0.3 4.28276e-15 -3.17454e-16 -4.4062e-16
342 1 0.4 0.9 0.3 -4.33681e-17 -5.63785e-17 -2.25514e-17
370 1 0.4 0.8 0.4 2.34188e-17 -2.71484e-16 -1.36176e-16
371 1 0.5 0.9 0.4 4.02456e-15 3.46945e-18 4.33681e-17
345 1 0.7 0.8 0.3 -1.94289e-16 -2.96312e-16 -7.97973e-17
346 1 0.6 0.9 0.3 -4.54991e-15 -2.51535e-17 -3.62557e-16
372 1 0.6 0.8 0.4 -4.22839e-15 -2.76688e-16 2.60209e-18
373 1 0.7 0.9 0.4 -1.5786e-16 3.29597e-17 6.01732e-17
349 1 0.9 0.8 0.3 7.63278e-17 -2.63678e-16 -1.14492e-16
350 1 0.8 0.9 0.3 -2.5327e-16 2.42861e-17 -1.45717e-16
374 1 0.8 0.8 0.4 -2.5327e-16 -2.32453e-16 7.11237e-17
375 1 0.9 0.9 0.4 3.1225e-17 4.85723e-17 1.38778e-17
376 1 0 0.5 0.5 3.08781e-16 3.89272e-15 3.88231e-15
381 1 0.1 0.6 0.5 4.85723e-17 -3.97425e-15 3.79384e-15
382 1 0 0.7 0.5 3.1225e-16 -2.08167e-16 3.94476e-15
401 1 0.1 0.5 0.6 0 3.78517e-15 -3.92394e-15
402 1 0 0.5 0.7 3.22659e-16 3.91354e-15 -2.42861e-16
411 1 0 0.6 0.6 2.22045e-16 -4.02629e-15 -4.0315e-15
412 1 0.1 0.7 0.6 -1.11022e-16 -1.75207e-16 -3.91527e-15
413 1 0.1 0.6 0.7 -3.46945e-17 -3.92915e-15 -1.70003e-16
414 1 0 0.7 0.7 4.7011e-16 -1.66533e-16 -2.56739e-16
377 1 0.2 0.5 0.5 7.40727e-16 4.10815e-15 4.06305e-15
383 1 0.3 0.6 0.5 -4.62304e-16 -4.35763e-15 4.12084e-15
384 1 0.2 0.7 0.5 5.18682e-16 -1.24141e-16 4.22877e-15
403 1 0.3 0.5 0.6 -4.51028e-16 4.22058e-15 -4.25701e-15
404 1 0.2 0.5 0.7 4.89192e-16 4.23999e-15 -9.16151e-17
415 1 0.2 0.6 0.6 1.0339e-15 -4.17e-15 -4.15613e-15
416 1 0.3 0.7 0.6 -2.79995e-16 -3.26128e-16 -4.3637e-15
417 1 0.3 0.6 0.7 -3.0645e-16 -4.36456e-15 -2.96638e-16
418 1 0.2 0.7 0.7 2.13371e-16 -1.46693e-16 -1.28857e-16
378 1 0.4 0.5 0.5 1.38778e-17 3.87884e-15 3.78517e-15
385 1 0.5 0.6 0.5 3.75568e-15 -3.85803e-15 3.70537e-15
386 1 0.4 0.7 0.5 8.67362e-17 -1.6263e-16 3.96476e-15
405 1 0.5 0.5 0.6 3.72272e-15 3.76262e-15 -3.94823e-15
406 1 0.4 0.5 0.7 2.94903e-17 3.98293e-15 -1.05818e-16
419 1 0.4 0.6 0.6 -2.60209e-17 -3.87884e-15 -3.89272e-15
420 1 0.5 0.7 0.6 3.89679e-15 -2.29851e-16 -4.05839e-15
421 1 0.5 0.6 0.7 3.84258e-15 -4.01068e-15 -1.31839e-16
422 1 0.4 0.7 0.7 -1.52656e-16 -1.661e-16 -1.81224e-16
379 1 0.6 0.5 0.5 -3.98293e-15 3.80945e-15 3.71231e-15
387 1 0.7 0.6 0.5 -1.8735e-16 -3.97539e-15 3.97338e-15
388 1 0.6 0.7 0.5 -4.00521e-15 -2.19876e-16 3.97864e-15
407 1 0.7 0.5 0.6 -1.88217e-16 3.97425e-15 -3.93376e-15
408 1 0.6 0.5 0.7 -4.00548e-15 3.87884e-15 -1.75207e-16
423 1 0.6 0.6 0.6 -3.904e-15 -3.92048e-15 -3.88925e-15
424 1 0.7 0.7 0.6 -2.14238e-16 -2.35922e-16 -4.18269e-15
425 1 0.7 0.6 0.7 -1.55258e-16 -4.12805e-15 -2.22912e-16
426 1 0.6 0.7 0.7 -4.09254e-15 -1.40079e-16 -1.53469e-16
380 1 0.8 0.5 0.5 -3.33067e-16 4.04191e-15 4.01068e-15
389 1 0.9 0.6 0.5 1.04083e-16 -4.13558e-15 3.9968e-15
390 1 0.8 0.7 0.5 -3.01842e-16 -2.93168e-16 4.12864e-15
409 1 0.9 0.5 0.6 9.02056e-17 4.00548e-15 -4.12864e-15
410 1 0.8 0.5 0.7 -3.1225e-16 4.06966e-15 -2.498e-16
427 1 0.8 0.6 0.6 -4.00721e-16 -4.09048e-15 -4.06793e-15
428 1 0.9 0.7 0.6 6.245e-17 -2.60209e-16 -4.18415e-15
429 1 0.9 0.6 0.7 4.85723e-17 -4.17721e-15 -3.19189e-16
430 1 0.8 0.7 0.7 -3.36536e-16 -2.72352e-16 -2.61943e-16
391 1 0.1 0.8 0.5 4.16334e-17 -2.55004e-16 3.75741e-15
392 1 0 0.9 0.5 3.71231e-16 -1.38778e-17 3.98639e-15
431 1 0 0.8 0.6 4.02456e-16 -2.9577e-16 -4.00721e-15
432 1 0.1 0.9 0.6 -1.38778e-17 4.85723e-17 -3.96211e-15
433 1 0.1 0.8 0.7 9.71445e-17 -2.70617e-16 -1.2837e-16
434 1 0 0.9 0.7 5.29091e-16 1.38778e-17 -2.15106e-16
393 1 0.3 0.8 0.5 -4.02456e-16 -2.91434e-16 4.38885e-15
394 1 0.2 0.9 0.5 5.12611e-16 1.07336e-17 4.27121e-15
435 1 0.2 0.8 0.6 5.90673e-16 -3.07046e-16 -4.33133e-15
436 1 0.3 0.9 0.6 -3.75134e-16 4.85723e-17 -4.52763e-15
437 1 0.3 0.8 0.7 -3.88686e-17 -3.62557e-16 -2.25514e-16
438 1 0.2 0.9 0.7 -2.08167e-17 -1.18178e-17 -1.83555e-16
395 1 0.5 0.8 0.5 4.03497e-15 -2.93168e-16 4.04538e-15
396 1 0.4 0.9 0.5 1.14492e-16 5.20417e-18 4.02109e-15
439 1 0.4 0.8 0.6 4.85723e-17 -3.13985e-16 -4.13732e-15
440 1 0.5 0.9 0.6 4.04841e-15 6.15827e-17 -4.17374e-15
441 1 0.5 0.8 0.7 4.07286e-15 -2.65413e-16 -1.73472e-16
442 1 0.4 0.9 0.7 6.93889e-17 -1.73472e-18 -1.68268e-16
397 1 0.7 0.8 0.5 -2.92301e-16 -3.17129e-16 4.10783e-15
398 1 0.6 0.9 0.5 -4.19803e-15 1.73472e-18 4.04017e-15
443 1 0.6 0.8 0.6 -4.14599e-15 -3.07046e-16 -4.13385e-15
444 1 0.7 0.9 0.6 -2.88831e-16 7.28584e-17 -4.15927e-15
445 1 0.7 0.8 0.7 -2.34188e-16 -2.99782e-16 -2.74086e-16
446 1 0.6 0.9 0.7 -4.18995e-15 -2.94903e-17 -2.30718e-16
399 1 0.9 0.8 0.5 2.08167e-17 -2.70617e-16 4.02803e-15
400 1 0.8 0.9 0.5 -3.33067e-16 1.04083e-17 4.07313e-15
447 1 0.8 0.8 0.6 -3.17454e-16 -3.13985e-16 -4.14772e-15
448 1 0.9 0.9 0.6 6.245e-17 5.89806e-17 -4.27436e-15
449 1 0.9 0.8 0.7 5.55112e-17 -2.77556e-16 -3.05311e-16
450 1 0.8 0.9 0.7 -2.77556e-16 4.51028e-17 -2.72352e-16
451 1 0.1 0.5 0.8 5.55112e-17 3.88752e-15 -2.65413e-16
452 1 0 0.5 0.9 4.3715e-16 3.98986e-15 4.51028e-17
461 1 0 0.6 0.8 3.67761e-16 -4.08874e-15 -2.7929e-16
462 1 0.1 0.7 0.8 1.249e-16 -1.61329e-16 -3.1572e-16
463 1 0.1 0.6 0.9 6.245e-17 -4.04191e-15 5.55112e-17
464 1 0 0.7 0.9 4.66641e-16 -2.42861e-16 4.16334e-17
453 1 0.3 0.5 0.8 -3.67761e-16 4.47906e-15 -2.74086e-16
454 1 0.2 0.5 0.9 4.82253e-16 4.26775e-15 2.11419e-17
465 1 0.2 0.6 0.8 5.75928e-16 -4.39205e-15 -2.70617e-16
466 1 0.3 0.7 0.8 -1.8052e-17 -2.48933e-16 -3.28405e-16
467 1 0.3 0.6 0.9 -3.70797e-16 -4.51028e-15 -1.64799e-17
468 1 0.2 0.7 0.9 6.07153e-17 -2.21286e-16 1.65341e-17
455 1 0.5 0.5 0.8 4.0315e-15 4.03844e-15 -2.74086e-16
456 1 0.4 0.5 0.9 5.20417e-17 4.01762e-15 -3.81639e-17
469 1 0.4 0.6 0.8 1.73472e-17 -4.14946e-15 -2.98372e-16
470 1 0.5 0.7 0.8 4.0772e-15 -2.29851e-16 -2.48608e-16
471 1 0.5 0.6 0.9 4.01111e-15 -4.17028e-15 4.59702e-17
472 1 0.4 0.7 0.9 3.81639e-17 -2.37223e-16 -1.13841e-18
457 1 0.7 0.5 0.8 -2.71484e-16 4.10089e-15 -2.70292e-16
458 1 0.6 0.5 0.9 -4.15813e-15 3.96211e-15 -1.9082e-17
473 1 0.6 0.6 0.8 -4.13732e-15 -4.09395e-15 -3.07046e-16
474 1 0.7 0.7 0.8 -2.2031e-16 -2.81893e-16 -3.07263e-16
475 1 0.7 0.6 0.9 -3.14852e-16 -4.20437e-15 3.46945e-17
476 1 0.6 0.7 0.9 -4.22031e-15 -1.81712e-16 4.06576e-18
459 1 0.9 0.5 0.8 2.77556e-17 4.01935e-15 -2.60209e-16
460 1 0.8 0.5 0.9 -3.26128e-16 4.0766e-15 6.93889e-18
477 1 0.8 0.6 0.8 -3.27863e-16 -4.10089e-15 -3.41741e-16
478 1 0.9 0.7 0.8 6.93889e-18 -3.01842e-16 -2.498e-16
479 1 0.9 0.6 0.9 9.02056e-17 -4.21191e-15 2.77556e-17
480 1 0.8 0.7 0.9 -2.39392e-16 -3.38271e-16 2.77556e-17
481 1 0 0.8 0.8 5.27356e-16 -2.35055e-16 -2.72352e-16
482 1 0.1 0.9 0.8 9.71445e-17 5.37764e-17 -2.81025e-16
483 1 0.1 0.8 0.9 1.66533e-16 -2.56739e-16 1.04083e-17
484 1 0 0.9 0.9 5.9848e-16 3.46945e-17 -4.51028e-17
485 1 0.2 0.8 0.8 2.68882e-17 -2.83627e-16 -3.31332e-16
486 1 0.3 0.9 0.8 -9.97466e-17 2.60209e-17 -2.72352e-16
487 1 0.3 0.8 0.9 -1.0842e-16 -2.67147e-16 3.29597e-17
488 1 0.2 0.9 0.9 1.12757e-17 3.28513e-17 3.15503e-17
489 1 0.4 0.8 0.8 6.33174e-17 -2.92301e-16 -2.88831e-16
490 1 0.5 0.9 0.8 4.11129e-15 -6.07153e-17 -2.86229e-16
491 1 0.5 0.8 0.9 4.16594e-15 -2.60209e-16 2.94903e-17
492 1 0.4 0.9 0.9 7.1991e-17 0 2.08167e-17
493 1 0.6 0.8 0.8 -4.27349e-15 -2.38524e-16 -2.38524e-16
494 1 0.7 0.9 0.8 -2.86229e-16 7.45931e-17 -2.59883e-16
495 1 0.7 0.8 0.9 -3.35669e-16 -2.59883e-16 2.25514e-17
496 1 0.6 0.9 0.9 -4.23359e-15 -7.28584e-17 7.28584e-17
497 1 0.8 0.8 0.8 -2.46331e-16 -2.7929e-16 -2.55004e-16
498 1 0.9 0.9 0.8 2.77556e-17 7.63278e-17 -3.01842e-16
499 1 0.9 0.8 0.9 4.16334e-17 -2.98372e-16 -3.81639e-17
500 1 0.8 0.9 0.9 -3.36536e-16 3.98986e-17 -1.21431e-17
